[Molden Format]
made by pyscf v[2.0.1]
[Atoms] (AU)
C   1   6    -2.64824329370423     4.97837009159918     0.33765626393729
C   2   6    -3.11383401627457     2.18535487949202     0.15597799432160
C   3   6    -4.98483295494519    -2.12320178725508     0.04641167361932
H   4   1     1.59245330790973     1.17429471106598     0.10482310812962
H   5   1    -1.42235905943763     5.63537117332672     0.08564238796529
H   6   1    -4.88828684724117     6.02922789220857    -0.21059107932153
C   7   6    -5.42432655973529     0.53055950673289    -0.14031216474896
H   8   1    -0.77029016289521    -4.11143933469371     0.12196292407943
C   9   6    -1.50237006355172    -1.83760747804956    -0.07320799006565
C   10   6    -0.79805023966507     0.29748068652903     0.57995694762902
H   11   1    -7.28646268288170     1.18291186219399    -0.26813323981454
H   12   1    -5.63077913884402    -3.65212250285693    -0.21346346303087
[GTO]
1 0
 s    6 1.00
           742.7370491  0.0091635962805161
           136.1800249    0.04936149294278
           38.09826352    0.16853830490949
           13.08778177    0.37056279972087
           5.082368648    0.41649152982346
           2.093200076    0.13033408410734
 s    6 1.00
            30.4972395  -0.013252788089787
           6.036199601  -0.046991710139244
           1.876046337  -0.033785371509457
           0.721782647    0.25024178609598
          0.3134706954    0.59511725259043
           0.143686555    0.24070617629613
 p    6 1.00
            30.4972395  0.0037596966004791
           6.036199601   0.037679369804802
           1.876046337    0.17389674352216
           0.721782647    0.41803643475328
          0.3134706954    0.42585954775427
           0.143686555    0.10170829551296

2 0
 s    6 1.00
           742.7370491  0.0091635962805161
           136.1800249    0.04936149294278
           38.09826352    0.16853830490949
           13.08778177    0.37056279972087
           5.082368648    0.41649152982346
           2.093200076    0.13033408410734
 s    6 1.00
            30.4972395  -0.013252788089787
           6.036199601  -0.046991710139244
           1.876046337  -0.033785371509457
           0.721782647    0.25024178609598
          0.3134706954    0.59511725259043
           0.143686555    0.24070617629613
 p    6 1.00
            30.4972395  0.0037596966004791
           6.036199601   0.037679369804802
           1.876046337    0.17389674352216
           0.721782647    0.41803643475328
          0.3134706954    0.42585954775427
           0.143686555    0.10170829551296

3 0
 s    6 1.00
           742.7370491  0.0091635962805161
           136.1800249    0.04936149294278
           38.09826352    0.16853830490949
           13.08778177    0.37056279972087
           5.082368648    0.41649152982346
           2.093200076    0.13033408410734
 s    6 1.00
            30.4972395  -0.013252788089787
           6.036199601  -0.046991710139244
           1.876046337  -0.033785371509457
           0.721782647    0.25024178609598
          0.3134706954    0.59511725259043
           0.143686555    0.24070617629613
 p    6 1.00
            30.4972395  0.0037596966004791
           6.036199601   0.037679369804802
           1.876046337    0.17389674352216
           0.721782647    0.41803643475328
          0.3134706954    0.42585954775427
           0.143686555    0.10170829551296

4 0
 s    6 1.00
           35.52322122  0.0091635962807908
           6.513143725    0.04936149294426
           1.822142904    0.16853830491455
           0.625955266    0.37056279973198
           0.243076747    0.41649152983594
           0.100112428    0.13033408411125

5 0
 s    6 1.00
           35.52322122  0.0091635962807908
           6.513143725    0.04936149294426
           1.822142904    0.16853830491455
           0.625955266    0.37056279973198
           0.243076747    0.41649152983594
           0.100112428    0.13033408411125

6 0
 s    6 1.00
           35.52322122  0.0091635962807908
           6.513143725    0.04936149294426
           1.822142904    0.16853830491455
           0.625955266    0.37056279973198
           0.243076747    0.41649152983594
           0.100112428    0.13033408411125

7 0
 s    6 1.00
           742.7370491  0.0091635962805161
           136.1800249    0.04936149294278
           38.09826352    0.16853830490949
           13.08778177    0.37056279972087
           5.082368648    0.41649152982346
           2.093200076    0.13033408410734
 s    6 1.00
            30.4972395  -0.013252788089787
           6.036199601  -0.046991710139244
           1.876046337  -0.033785371509457
           0.721782647    0.25024178609598
          0.3134706954    0.59511725259043
           0.143686555    0.24070617629613
 p    6 1.00
            30.4972395  0.0037596966004791
           6.036199601   0.037679369804802
           1.876046337    0.17389674352216
           0.721782647    0.41803643475328
          0.3134706954    0.42585954775427
           0.143686555    0.10170829551296

8 0
 s    6 1.00
           35.52322122  0.0091635962807908
           6.513143725    0.04936149294426
           1.822142904    0.16853830491455
           0.625955266    0.37056279973198
           0.243076747    0.41649152983594
           0.100112428    0.13033408411125

9 0
 s    6 1.00
           742.7370491  0.0091635962805161
           136.1800249    0.04936149294278
           38.09826352    0.16853830490949
           13.08778177    0.37056279972087
           5.082368648    0.41649152982346
           2.093200076    0.13033408410734
 s    6 1.00
            30.4972395  -0.013252788089787
           6.036199601  -0.046991710139244
           1.876046337  -0.033785371509457
           0.721782647    0.25024178609598
          0.3134706954    0.59511725259043
           0.143686555    0.24070617629613
 p    6 1.00
            30.4972395  0.0037596966004791
           6.036199601   0.037679369804802
           1.876046337    0.17389674352216
           0.721782647    0.41803643475328
          0.3134706954    0.42585954775427
           0.143686555    0.10170829551296

10 0
 s    6 1.00
           742.7370491  0.0091635962805161
           136.1800249    0.04936149294278
           38.09826352    0.16853830490949
           13.08778177    0.37056279972087
           5.082368648    0.41649152982346
           2.093200076    0.13033408410734
 s    6 1.00
            30.4972395  -0.013252788089787
           6.036199601  -0.046991710139244
           1.876046337  -0.033785371509457
           0.721782647    0.25024178609598
          0.3134706954    0.59511725259043
           0.143686555    0.24070617629613
 p    6 1.00
            30.4972395  0.0037596966004791
           6.036199601   0.037679369804802
           1.876046337    0.17389674352216
           0.721782647    0.41803643475328
          0.3134706954    0.42585954775427
           0.143686555    0.10170829551296

11 0
 s    6 1.00
           35.52322122  0.0091635962807908
           6.513143725    0.04936149294426
           1.822142904    0.16853830491455
           0.625955266    0.37056279973198
           0.243076747    0.41649152983594
           0.100112428    0.13033408411125

12 0
 s    6 1.00
           35.52322122  0.0091635962807908
           6.513143725    0.04936149294426
           1.822142904    0.16853830491455
           0.625955266    0.37056279973198
           0.243076747    0.41649152983594
           0.100112428    0.13033408411125

[5d]
[7f]
[9g]

[MO]
 Sym= A
 Ene=               0
 Spin= Alpha
 Occup=    1.00000
   1       0.9954396712413
   2     0.024059601424042
   3    0.0040453606548073
   4    0.00096057611682146
   5    -0.0021380628812789
   6    0.0085767800989587
   7    -0.0031158094116245
   8    -0.00089696783476766
   9    -0.0024383066074129
  10    -0.00021285020079846
  11    -1.9416577840312e-05
  12    2.5982811951903e-05
  13    -6.634992764102e-07
  14    2.9356951297956e-05
  15    -4.5601554197433e-05
  16    -6.7253119242374e-05
  17    -0.0081753148889607
  18    -0.0027303823111464
  19    -0.00030593207453776
  20    -0.00017506892228965
  21    -0.00018207124412557
  22    7.0632372750342e-06
  23    -0.00013817331874058
  24    -1.7278736892319e-06
  25    -8.4252358559971e-05
  26    -8.4273778881775e-05
  27    1.1934965952426e-05
  28    -6.7041825943918e-05
  29    3.0219494742654e-05
  30    -0.00032152449158437
  31    8.7456399041287e-05
  32    -4.5427996646306e-05
  33    -6.547887272225e-05
  34    -3.4336895963396e-05
  35    -2.023977945622e-05
  36    -2.3690697296825e-06
 Sym= A
 Ene=               0
 Spin= Alpha
 Occup=    1.00000
   1    -0.0080882357524003
   2    -0.003527311383032
   3    0.00045920568500074
   4    0.0025574255226649
   5    0.00019876701729895
   6      0.99546528009188
   7     0.020365125222596
   8    -6.5131145310024e-05
   9    -0.00014811204372433
  10    0.00039746084554107
  11    -0.00044060446241946
  12    -3.5144515219316e-05
  13    8.5901378846869e-05
  14    -2.8245794926769e-05
  15    6.1987810301194e-05
  16    -3.5532602832944e-05
  17    -8.6945746559035e-05
  18    -0.0001421223868935
  19     0.010983274572664
  20    -0.0032027850749222
  21    -0.0020635338900955
  22    -0.0015633229605637
  23    -0.00016947166036449
  24    -7.0286945362478e-06
  25    -0.0013377021311924
  26    -1.8344357552563e-05
  27    2.4021262101604e-05
  28    7.9689852670776e-06
  29    1.7533011713296e-05
  30    0.00033046862387257
  31    -0.0030725979695649
  32    0.0018530668541026
  33     -0.00150147701305
  34    0.00032202233297367
  35    -0.00011569193736921
  36    1.3732898372133e-05
 Sym= A
 Ene=               0
 Spin= Alpha
 Occup=    1.00000
   1    0.00040534086770316
   2    -2.1665243606468e-05
   3    -0.00014745320240181
   4    4.2262859947614e-05
   5    1.6744527922494e-05
   6    -0.010449124918922
   7    -0.0037041326369376
   8    0.0021453791977268
   9     0.001556003927301
  10    0.00031997462285227
  11     0.013681613225905
  12    -0.0037066959296508
  13    0.00046338410685559
  14    -0.0030371444310623
  15    0.00022139118491879
  16    -9.0189830365275e-06
  17    5.9017402422183e-05
  18    -8.4602601142544e-05
  19      0.99521774783034
  20     0.022186758350318
  21    -6.7585580133769e-05
  22    -0.00063709477127735
  23    0.00053095723695889
  24    -5.1415905396757e-05
  25    -0.0023978031804483
  26    -0.00022904027805187
  27    0.00016071831126316
  28    -0.00023348240683623
  29    1.7740324225148e-05
  30    -0.0022930767370041
  31    9.0288914756971e-05
  32    -3.216620709005e-06
  33    -1.033829233073e-05
  34    -6.0429479015112e-05
  35    -0.0046224818598397
  36    -0.00034053548923525
 Sym= A
 Ene=               0
 Spin= Alpha
 Occup=    1.00000
   1    0.00035384415727719
   2    4.2691316497038e-05
   3    0.00011206116290151
   4    8.1527340734092e-05
   5    -1.6004993110147e-05
   6    0.00053125224334713
   7    -0.0031333290162613
   8    -0.0018006963988097
   9    0.0017521603221808
  10    -0.00020657424695119
  11    -0.0023570584578746
  12    -0.00045358879505649
  13    -0.00045102908387389
  14    -0.00014363330838708
  15    -5.6073570749804e-05
  16    -0.002700162091791
  17    -0.00014611065835947
  18    -1.5935045785046e-05
  19    0.0028410891839722
  20    0.00016085105451434
  21    -4.4004992164305e-05
  22    2.9406644228073e-05
  23    -1.6263218090127e-05
  24    -0.00065087844304897
  25      0.21351841318687
  26    -0.0018736186925589
  27    -0.00079870893904749
  28    -0.0027440627257474
  29    -0.00056853668617397
  30      0.97221324391051
  31      0.02062517739554
  32    -0.0018364390046092
  33    -0.0022657896918981
  34    -0.002054630680558
  35    -7.40722879347e-05
  36    -4.7289574424054e-05
 Sym= A
 Ene=               0
 Spin= Alpha
 Occup=    1.00000
   1    1.6573197950931e-05
   2    -0.00010476767496891
   3    -7.4033491834356e-06
   4    8.7711769822723e-05
   5    -1.0713299040361e-05
   6    0.0012763947550176
   7    0.00077350998231674
   8    0.00046453330374963
   9    -0.00017438872499163
  10    0.00015838671229668
  11    -0.015367765213645
  12    -0.0025084168329221
  13    -0.0022759148727581
  14    -0.00016658765512152
  15    2.8577367027183e-05
  16    0.00038880686108415
  17    2.4985458360986e-05
  18    1.767444593909e-05
  19     0.002131005062892
  20    0.00020190113006735
  21    -0.00021739728700039
  22    -0.00013921329786491
  23    8.6972238853941e-05
  24    -0.0027422364793159
  25      0.97231847672964
  26     0.022035103097739
  27    0.0018040303034832
  28    0.0036967036738021
  29    0.0019725019799742
  30     -0.21363401504955
  31    -0.010809825013017
  32    0.0013573305099919
  33    0.0037580398655714
  34    0.0013084614604707
  35    -0.00019701431813286
  36    0.00015886706597477
 Sym= A
 Ene=               0
 Spin= Alpha
 Occup=    1.00000
   1    2.4695566364469e-05
   2    -4.6045940738758e-05
   3    1.2472983358927e-05
   4    6.4742047277654e-05
   5    -3.4784975320249e-05
   6    0.00057808924324773
   7    0.00026811960854894
   8    6.1513688497616e-05
   9    -0.00016583031978713
  10    -0.00012123485446663
  11      0.99542225251745
  12     0.021365941690077
  13    -0.0025531093924675
  14    -0.00089159282426579
  15    -0.0014099442859346
  16    -0.00025902354015468
  17    -5.9334469381311e-06
  18    1.311550290307e-05
  19     -0.01328402925694
  20    -0.0037883970589659
  21    -3.2535563081119e-05
  22    0.0023353833075708
  23    -0.00028961101396748
  24    0.00022996556256176
  25      0.01629000636029
  26    -0.0021666803685546
  27    0.0029097842997785
  28    0.00033357925295342
  29    5.038546827799e-05
  30    -0.001000689638654
  31    8.5410161371957e-05
  32    -0.00017428755201607
  33    -9.5846595324431e-05
  34    -2.5785653642438e-05
  35    -0.00016307599721895
  36    -0.0058358257014883
 Sym= A
 Ene=               0
 Spin= Alpha
 Occup=    1.00000
   1    -0.065715542600522
   2      0.17132284312321
   3     0.021015419743342
   4    -0.037095356067744
   5    -0.017256914305347
   6     -0.11971181286109
   7       0.3450229348647
   8    0.0066558322653715
   9    -0.046631009483818
  10    0.0073437443540593
  11    -0.059029117560548
  12      0.14419234118315
  13    -0.052119628762928
  14     0.058108297680989
  15     -0.01066756023054
  16     0.032481333014268
  17     0.074535209282637
  18     0.025575681163155
  19     -0.10005519185611
  20       0.2790016410559
  21     0.049606449360641
  22    -0.014860414053185
  23     0.014730369705071
  24      0.04670051496299
  25     -0.10007689302363
  26      0.24306676870334
  27     0.072610417664564
  28       0.1182231501539
  29     0.030729802102692
  30     -0.13361154959332
  31      0.35577121423988
  32    -0.079318424048789
  33    -0.067190300020911
  34    -0.043797353487225
  35     0.052123233574434
  36     0.052959528366875
 Sym= A
 Ene=               0
 Spin= Alpha
 Occup=    1.00000
   1     -0.18530925790368
   2      0.48726294876762
   3      0.11052637439511
   4    0.0028496138016232
   5    -0.062557641077922
   6    -0.065193674409039
   7      0.19477182031476
   8    -0.0051641484497605
   9      0.13401030901356
  10    -0.005069757608122
  11     0.026263283005242
  12    -0.066141030832902
  13     0.026232036658946
  14    -0.0054608401258469
  15    0.0069071738053114
  16    -0.022099287059353
  17      0.28973472434083
  18      0.08589585102123
  19    0.0013517739706382
  20    -0.001002416232389
  21    0.0085929519827318
  22     0.050043062247133
  23    -6.9132840839154e-05
  24    -0.051192759272453
  25     0.087688589112355
  26     -0.23128330721294
  27    -0.068064262693975
  28    -0.085834329061411
  29    -0.028694894476975
  30     0.077727666290924
  31     -0.20981663898747
  32     0.015590258799055
  33      0.12015646085075
  34     0.029524637712862
  35     0.008583670028734
  36    -0.036317406677717
 Sym= A
 Ene=               0
 Spin= Alpha
 Occup=    1.00000
   1     0.044630390052688
   2     -0.11371060889773
   3    -0.046322313281162
   4    -0.014392721868624
   5     0.014991821289412
   6    -0.010415347514763
   7     0.034478482696359
   8      -0.1095436537499
   9    -0.043345271170094
  10    -0.012263375960275
  11     -0.12496357272444
  12      0.34245069544411
  13     -0.10310582236659
  14     0.061811205443919
  15    -0.030110640087851
  16    -0.056970299769695
  17    -0.084673499417728
  18    -0.015454126033211
  19     -0.14978845272145
  20      0.44451768269236
  21    -0.021107616292997
  22    -0.073041287257978
  23    0.0044002413836752
  24    -0.036287518176422
  25      0.08702349364317
  26     -0.24170104995982
  27    -0.054705778195133
  28    -0.098233061689996
  29    -0.030199675030323
  30      0.10420185417636
  31     -0.29237007350471
  32     0.019305673379133
  33     0.086144093353581
  34     0.033581075694989
  35      0.13734641633293
  36       0.1515484928288
 Sym= A
 Ene=               0
 Spin= Alpha
 Occup=    1.00000
   1    -0.061178994583495
   2      0.14595178807595
   3      0.13014664997554
   4      0.13929577498961
   5    -0.032898708945371
   6      0.10369681944821
   7     -0.32849076323473
   8     0.068076812662758
   9     0.056963501565757
  10    -0.0076131993806972
  11     -0.12898471508291
  12      0.36048348786617
  13     -0.13369127708538
  14     -0.16060647296812
  15    -0.048138213202761
  16    -0.0023443607308952
  17      0.20391120000894
  18      0.02462423155185
  19     0.055999274301785
  20     -0.16480750545491
  21    -0.063355823495458
  22     -0.16830941524879
  23    -0.023488851778162
  24     0.076856179671438
  25    -0.052528905518241
  26      0.15203871909547
  27     0.065230189801579
  28    -0.010567773872471
  29     0.016490349473673
  30    -0.0057178417699151
  31     0.010430281123324
  32     0.050773700037286
  33     -0.10582704726511
  34    -0.0079229840476923
  35    -0.070860524474883
  36      0.30500809265974
 Sym= A
 Ene=               0
 Spin= Alpha
 Occup=    1.00000
   1     0.025822635000892
   2    -0.038530507527588
   3     -0.14587327255949
   4     -0.22701591665081
   5     0.027352288613561
   6     -0.10986322978448
   7      0.37005253805741
   8     0.099810416792976
   9     0.055133977310461
  10     0.025394650934627
  11    -0.056216328827657
  12      0.15201874394878
  13    -0.072012341793294
  14     -0.26450129811034
  15    -0.027895803519083
  16     0.021295036278159
  17     -0.21216995776646
  18    -0.012217541209552
  19     0.091986346730256
  20     -0.28233630335619
  21      0.15350761729104
  22     0.024040791389042
  23    0.0068911183615028
  24    -0.060807463876291
  25     0.058369898638371
  26     -0.18390289155233
  27    -0.044726124047386
  28    -0.014564254566519
  29    -0.021064800946345
  30    -0.015610200716545
  31     0.071899657386323
  32    -0.051432118163554
  33      0.17314200460994
  34     0.007899138321928
  35     -0.21548804149929
  36      0.27848712975576
 Sym= A
 Ene=               0
 Spin= Alpha
 Occup=    1.00000
   1    -0.026110467767207
   2      0.13144945492824
   3     -0.25375936775755
   4     -0.14890677762895
   5    -0.0097971858754434
   6    -0.017973742137289
   7     0.058352421767897
   8     -0.14881383912319
   9      0.22878320826167
  10     -0.02312331974982
  11     0.027081687602624
  12    -0.089592502977697
  13     0.010239727406005
  14     -0.16411007946706
  15    0.0010772439528854
  16    -0.065162136957516
  17     -0.17149729051918
  18      0.14443695969328
  19    -0.0023509797682455
  20     0.014763989506691
  21     -0.12380777632408
  22      0.19755369272374
  23    -0.014104160159321
  24      0.26762618507757
  25    -0.090261576061507
  26      0.31312483070438
  27      0.11095280907428
  28       -0.185732325394
  29     0.015336604115732
  30     0.054241775042556
  31     -0.18686554892196
  32     0.074137526465494
  33     -0.16211621053341
  34    0.0077840087982313
  35      0.14567038534913
  36     0.059775377598273
 Sym= A
 Ene=               0
 Spin= Alpha
 Occup=    1.00000
   1    -0.0079258666009061
   2     0.028054626301744
   3    -0.023239437425925
   4     0.059067969623087
   5    -0.011894042075622
   6    -0.029784027691147
   7       0.1069207270068
   8     -0.14016554154676
   9     -0.10205105403176
  10    -0.020844673332151
  11    -0.020144686498913
  12     0.059758784102113
  13    0.0029402706997991
  14      0.17777556257708
  15     0.003768515482454
  16     -0.27567046612303
  17     0.023021608043688
  18     0.039338380845003
  19    0.0097542146097344
  20    -0.027452276038476
  21      0.38493111906508
  22     -0.14919485609686
  23     0.040943868103012
  24      0.17492798827941
  25    -0.049552362291085
  26      0.15886616182328
  27     0.040660060392075
  28      -0.0982439517637
  29    0.0062473540532051
  30     0.082972576945325
  31     -0.30334707608339
  32     -0.16560392079828
  33     -0.12902509331504
  34    0.0038721315531306
  35     -0.37411206943902
  36    -0.077572203950575
 Sym= A
 Ene=               0
 Spin= Alpha
 Occup=    1.00000
   1      0.04281885983749
   2     -0.21122516911846
   3      0.32760173997023
   4      0.12632291854326
   5     0.021201684869266
   6    -0.040021870071639
   7      0.15335774781294
   8     -0.11818704749355
   9     -0.25988292544291
  10    -0.0054445989189968
  11     0.043121931905315
  12     -0.16848809736726
  13     0.016642182884449
  14     -0.32141360829524
  15     0.007039391724785
  16     -0.10046744021213
  17      0.20698786879705
  18     -0.25458507373489
  19    -0.011601490352574
  20     0.053595199917684
  21     0.057549213057739
  22      0.37133752679134
  23     0.014614605975071
  24      0.12351003364972
  25    -0.012998362850546
  26     0.048954022404358
  27     0.010557082111256
  28     -0.10832097843722
  29    -0.0089945862927561
  30     0.020859428375601
  31    -0.066799930729073
  32     -0.10980761268311
  33      0.03764385618131
  34    0.0070164097486806
  35     0.094558278081069
  36      0.16704295870326
 Sym= A
 Ene=               0
 Spin= Alpha
 Occup=    1.00000
   1    -0.018712166370123
   2     0.082495887685798
   3     -0.19533675440202
   4      0.19572863522563
   5    -0.037176358654348
   6     0.024845644687996
   7    -0.097622629302165
   8     -0.18908174019971
   9    -0.088262840953766
  10    -0.038576564866774
  11    0.0091220646600437
  12    -0.042026132828346
  13    -0.0051304126973808
  14     -0.18192809758267
  15    -0.000118121318332
  16     -0.15451586147622
  17    -0.015394767868322
  18       0.2509510921841
  19     0.005732837587047
  20    -0.018047477948021
  21     0.037996977174868
  22      0.18265937904708
  23    -0.0008772814280153
  24     -0.34919541593905
  25     0.012617708293166
  26    -0.093063348932427
  27     -0.04440807330176
  28      0.38586595367044
  29     0.050145064934084
  30    -0.014251522267575
  31    -0.0066744068199391
  32     -0.13191988064014
  33     -0.26367831316703
  34    -0.041248026569871
  35     0.026927789164508
  36      0.13154689806178
 Sym= A
 Ene=               0
 Spin= Alpha
 Occup=    1.00000
   1    0.0048841269678895
   2    -0.012852257441342
   3     -0.13855807803899
   4      0.27764370404167
   5    -0.030574036630235
   6      0.01439581202351
   7    -0.053075833979273
   8     -0.23388572948106
   9     -0.19533967528271
  10    -0.045289873977442
  11    -0.0021154462782173
  12    0.0051478762509231
  13     0.028848856826735
  14    -0.030499905627433
  15    0.00043156534074125
  16      0.41457220222003
  17     0.020247915827553
  18      0.22797031277059
  19    -0.023854354431768
  20     0.094903956828397
  21      0.24697035125527
  22     0.098241726165401
  23      0.02786776130395
  24     0.079155949930792
  25     0.035915301959441
  26     -0.10024897548432
  27      0.03883482272549
  28     -0.16267065184074
  29    -0.070346117619858
  30    -0.024502450631012
  31       0.1347412063906
  32      0.35134183042973
  33      0.16762124453415
  34    -0.012264855714409
  35     -0.14950891299022
  36     0.030378812419001
 Sym= A
 Ene=               0
 Spin= Alpha
 Occup=    1.00000
   1    0.0041977642960269
   2     0.012638599840516
   3     -0.20794834108782
   4      0.28618444065068
   5    -0.028614611429581
   6    0.0058921526699464
   7    -0.0095661814938857
   8      0.30196464731531
   9     -0.27419079943244
  10      0.07278206149598
  11     0.016477475197166
  12    -0.067692151950664
  13    -0.019191747573863
  14    -0.026559574185687
  15    0.0046802648365852
  16     -0.16784017604452
  17      -0.0639044511881
  18      0.34161151180022
  19     0.017522313726474
  20    -0.079611498707344
  21     -0.17538623845045
  22    -0.043704290113625
  23    -0.017087798992166
  24      0.19917044290265
  25    0.0091955542384267
  26    -0.023332205516043
  27    -0.077174533550754
  28     -0.19988381058565
  29     0.063025991663856
  30    -0.027301600336806
  31       0.1463429472136
  32     -0.31283405686916
  33      0.28684320935388
  34      0.12820889222338
  35      0.14304859654914
  36    -0.011773340462527
 Sym= A
 Ene=               0
 Spin= Alpha
 Occup=    1.00000
   1    -0.0015697071955439
   2    -0.002951552421132
   3     0.033499596293272
   4    -0.036264043913109
   5    -0.0032302599416189
   6    0.0035690357159456
   7    -0.013034182142528
   8    -0.098611297068457
   9     0.048768731111394
  10     0.078737707806985
  11    -0.0070798890136765
  12     0.026517713367163
  13     0.013175414357749
  14    0.0077205563858962
  15     0.028304122064234
  16     0.039032274021716
  17     0.018902218315709
  18     -0.05054997226228
  19    -0.0071673726149878
  20     0.032037047801286
  21     0.057405555682187
  22     0.012459942584157
  23    -0.016924529616306
  24     -0.02344278486924
  25     0.036933733720272
  26     -0.15705910561515
  27     -0.02907349755565
  28    -0.076517376356418
  29      0.57199637939707
  30    -0.039178294648398
  31      0.16886703605958
  32     0.056311434674365
  33     -0.12968733329103
  34      0.59157465304901
  35    -0.045142343330758
  36    0.0036646487935972
 Sym= A
 Ene=               0
 Spin= Alpha
 Occup=    1.00000
   1    -0.0070997274522913
   2     0.029072029741905
   3    -0.0036620293580079
   4    -0.029519594707667
   5     0.038943947568673
   6     0.026794754764058
   7     -0.12569695844707
   8    -0.029128218276288
   9     0.077095704459644
  10      0.04083239266039
  11    -0.064894426434274
  12      0.27969717764383
  13      0.56203845753814
  14    -0.064233116091778
  15     0.071067580965936
  16       0.1268261815321
  17    -0.00072760733676868
  18    -0.010736906404297
  19      0.01706364384298
  20    -0.081030657657052
  21    -0.018125467454734
  22     0.098320046981092
  23     0.033400865300195
  24      -0.1460070631722
  25    -0.063385656821776
  26      0.26670325467673
  27     -0.52060934349091
  28    -0.019095980609671
  29    -0.030730903455023
  30     0.020468128857979
  31    -0.070207702981103
  32      0.02686866180753
  33     0.067491602394773
  34     0.023942857397567
  35     0.085604536487728
  36     -0.08938273233234
 Sym= A
 Ene=               0
 Spin= Alpha
 Occup=    1.00000
   1    -0.017666031751471
   2     0.073525618047743
   3    -0.014168694651373
   4     0.024956676513381
   5      0.27674711894496
   6    0.0067328642318356
   7    -0.027210839197498
   8    -0.062051714773298
   9    -0.013512139886772
  10      0.37217463208869
  11    -0.012815263978623
  12     0.054913444741675
  13    -0.079785362194832
  14    -0.0032442226682482
  15      0.44626469244672
  16     0.004907313583936
  17    0.0031909376330505
  18    -0.0089998481490213
  19    0.0079992612222666
  20    -0.033443747175259
  21    -0.054838107473611
  22     0.011526451164548
  23      0.57557641931067
  24    0.0035779514614501
  25    0.0015225161136046
  26    -0.0026145905505109
  27      0.07304425325582
  28     0.023461508769183
  29    -0.081984506221756
  30    0.0042002557525625
  31    -0.024849544513777
  32    0.0029395312794974
  33    -0.00038820275727257
  34    -0.085055033480312
  35    -0.0052433601980269
  36    0.0076708615221236
 Sym= A
 Ene=               0
 Spin= Alpha
 Occup=    1.00000
   1    -0.034805444176016
   2      0.15872937648531
   3    -0.026537260266248
   4     0.045144599970004
   5      0.61186696870059
   6     0.012582328220018
   7    -0.055943380087414
   8    -0.082828768506774
   9    -0.023718935734562
  10      0.44763445066476
  11     0.017059008630365
  12    -0.078543519896595
  13     0.022484461225046
  14    0.0053812334292509
  15     -0.43711196651858
  16    -0.0022637377439865
  17    -0.012903533721463
  18     -0.03077919388956
  19    -0.0095176822158655
  20     0.043888697628995
  21      0.04462880000932
  22    -0.0081676525167849
  23     -0.28915382609643
  24    -0.0098533263872947
  25    -0.0050611831272408
  26     0.022430872574709
  27     0.021325608980011
  28     0.020662782330655
  29    -0.096730521455351
  30    -0.0017248204952907
  31    0.0056751880538363
  32    0.0011188363158697
  33     -0.00573495959306
  34     0.027152001081915
  35    -0.011748436224861
  36     0.016433684992839
 Sym= A
 Ene=               0
 Spin= Alpha
 Occup=    0.00000
   1    -0.027880277904128
   2      0.16375428057934
   3    -0.025161930982036
   4     0.069786281640299
   5       0.6346084823824
   6    -0.0013973757218844
   7     0.012233252500377
   8     0.094768925492134
   9    -0.026856305404563
  10     -0.54919406341259
  11    -0.0057549407362161
  12     0.031840632018494
  13     -0.10484479886797
  14     -0.01520986009354
  15      0.51633884693935