[Molden Format]
made by pyscf v[2.0.1]
[Atoms] (AU)
C   1   6    -2.86000600322299     4.84822465340039    -0.01192417184601
C   2   6    -2.97920992716056     2.21517475773766    -0.00017007535121
C   3   6    -4.63489347119824    -1.96234829953210    -0.09429733361580
H   4   1     1.34799833643600     0.99095348246067     0.34300418886980
H   5   1    -0.91447626619952     5.86145800686968     0.12011099247736
H   6   1    -4.70677865297669     6.03232704305285    -0.15433393259323
C   7   6    -5.37568500928899     0.57470350900273    -0.17153044032677
H   8   1    -0.55930224108752    -3.95661407330810     0.23564884773326
C   9   6    -1.70710299188709    -2.09366536792812     0.13239421228703
C   10   6    -0.74043249012708     0.36681473803932     0.18713957811568
H   11   1    -7.39933602430197     1.38327952318163    -0.33399019525563
H   12   1    -5.94611773725020    -3.71501258828245    -0.18114914630081
[GTO]
1 0
 s    6 1.00
           742.7370491  0.0091635962805161
           136.1800249    0.04936149294278
           38.09826352    0.16853830490949
           13.08778177    0.37056279972087
           5.082368648    0.41649152982346
           2.093200076    0.13033408410734
 s    6 1.00
            30.4972395  -0.013252788089787
           6.036199601  -0.046991710139244
           1.876046337  -0.033785371509457
           0.721782647    0.25024178609598
          0.3134706954    0.59511725259043
           0.143686555    0.24070617629613
 p    6 1.00
            30.4972395  0.0037596966004791
           6.036199601   0.037679369804802
           1.876046337    0.17389674352216
           0.721782647    0.41803643475328
          0.3134706954    0.42585954775427
           0.143686555    0.10170829551296

2 0
 s    6 1.00
           742.7370491  0.0091635962805161
           136.1800249    0.04936149294278
           38.09826352    0.16853830490949
           13.08778177    0.37056279972087
           5.082368648    0.41649152982346
           2.093200076    0.13033408410734
 s    6 1.00
            30.4972395  -0.013252788089787
           6.036199601  -0.046991710139244
           1.876046337  -0.033785371509457
           0.721782647    0.25024178609598
          0.3134706954    0.59511725259043
           0.143686555    0.24070617629613
 p    6 1.00
            30.4972395  0.0037596966004791
           6.036199601   0.037679369804802
           1.876046337    0.17389674352216
           0.721782647    0.41803643475328
          0.3134706954    0.42585954775427
           0.143686555    0.10170829551296

3 0
 s    6 1.00
           742.7370491  0.0091635962805161
           136.1800249    0.04936149294278
           38.09826352    0.16853830490949
           13.08778177    0.37056279972087
           5.082368648    0.41649152982346
           2.093200076    0.13033408410734
 s    6 1.00
            30.4972395  -0.013252788089787
           6.036199601  -0.046991710139244
           1.876046337  -0.033785371509457
           0.721782647    0.25024178609598
          0.3134706954    0.59511725259043
           0.143686555    0.24070617629613
 p    6 1.00
            30.4972395  0.0037596966004791
           6.036199601   0.037679369804802
           1.876046337    0.17389674352216
           0.721782647    0.41803643475328
          0.3134706954    0.42585954775427
           0.143686555    0.10170829551296

4 0
 s    6 1.00
           35.52322122  0.0091635962807908
           6.513143725    0.04936149294426
           1.822142904    0.16853830491455
           0.625955266    0.37056279973198
           0.243076747    0.41649152983594
           0.100112428    0.13033408411125

5 0
 s    6 1.00
           35.52322122  0.0091635962807908
           6.513143725    0.04936149294426
           1.822142904    0.16853830491455
           0.625955266    0.37056279973198
           0.243076747    0.41649152983594
           0.100112428    0.13033408411125

6 0
 s    6 1.00
           35.52322122  0.0091635962807908
           6.513143725    0.04936149294426
           1.822142904    0.16853830491455
           0.625955266    0.37056279973198
           0.243076747    0.41649152983594
           0.100112428    0.13033408411125

7 0
 s    6 1.00
           742.7370491  0.0091635962805161
           136.1800249    0.04936149294278
           38.09826352    0.16853830490949
           13.08778177    0.37056279972087
           5.082368648    0.41649152982346
           2.093200076    0.13033408410734
 s    6 1.00
            30.4972395  -0.013252788089787
           6.036199601  -0.046991710139244
           1.876046337  -0.033785371509457
           0.721782647    0.25024178609598
          0.3134706954    0.59511725259043
           0.143686555    0.24070617629613
 p    6 1.00
            30.4972395  0.0037596966004791
           6.036199601   0.037679369804802
           1.876046337    0.17389674352216
           0.721782647    0.41803643475328
          0.3134706954    0.42585954775427
           0.143686555    0.10170829551296

8 0
 s    6 1.00
           35.52322122  0.0091635962807908
           6.513143725    0.04936149294426
           1.822142904    0.16853830491455
           0.625955266    0.37056279973198
           0.243076747    0.41649152983594
           0.100112428    0.13033408411125

9 0
 s    6 1.00
           742.7370491  0.0091635962805161
           136.1800249    0.04936149294278
           38.09826352    0.16853830490949
           13.08778177    0.37056279972087
           5.082368648    0.41649152982346
           2.093200076    0.13033408410734
 s    6 1.00
            30.4972395  -0.013252788089787
           6.036199601  -0.046991710139244
           1.876046337  -0.033785371509457
           0.721782647    0.25024178609598
          0.3134706954    0.59511725259043
           0.143686555    0.24070617629613
 p    6 1.00
            30.4972395  0.0037596966004791
           6.036199601   0.037679369804802
           1.876046337    0.17389674352216
           0.721782647    0.41803643475328
          0.3134706954    0.42585954775427
           0.143686555    0.10170829551296

10 0
 s    6 1.00
           742.7370491  0.0091635962805161
           136.1800249    0.04936149294278
           38.09826352    0.16853830490949
           13.08778177    0.37056279972087
           5.082368648    0.41649152982346
           2.093200076    0.13033408410734
 s    6 1.00
            30.4972395  -0.013252788089787
           6.036199601  -0.046991710139244
           1.876046337  -0.033785371509457
           0.721782647    0.25024178609598
          0.3134706954    0.59511725259043
           0.143686555    0.24070617629613
 p    6 1.00
            30.4972395  0.0037596966004791
           6.036199601   0.037679369804802
           1.876046337    0.17389674352216
           0.721782647    0.41803643475328
          0.3134706954    0.42585954775427
           0.143686555    0.10170829551296

11 0
 s    6 1.00
           35.52322122  0.0091635962807908
           6.513143725    0.04936149294426
           1.822142904    0.16853830491455
           0.625955266    0.37056279973198
           0.243076747    0.41649152983594
           0.100112428    0.13033408411125

12 0
 s    6 1.00
           35.52322122  0.0091635962807908
           6.513143725    0.04936149294426
           1.822142904    0.16853830491455
           0.625955266    0.37056279973198
           0.243076747    0.41649152983594
           0.100112428    0.13033408411125

[5d]
[7f]
[9g]

[MO]
 Sym= A
 Ene=               0
 Spin= Alpha
 Occup=    1.00000
   1     0.026367963149993
   2    -0.0037243554875613
   3    0.00013032040855791
   4    0.0028774295011182
   5    -1.2774422395242e-05
   6       0.9950071146858
   7     0.021360767984134
   8    1.8697147039252e-05
   9    0.00040820238752701
  10    -1.248831834752e-06
  11    -0.0036807267217326
  12    -0.00010715358359722
  13    -5.6629275494745e-06
  14    -4.7757226528274e-05
  15    -6.054222913312e-08
  16    -7.6639187899548e-05
  17    -0.00017597885112154
  18    -0.00017589535853308
  19    0.0081617812292904
  20    -0.0031747973520715
  21    -0.0020466212457662
  22    -0.0015379909074705
  23    -0.00014512330070405
  24    -3.1463776683349e-06
  25    -0.0036800467846289
  26    -0.00010709260238467
  27    1.3267586963105e-06
  28    -4.8039034889735e-05
  29    5.2644961599693e-07
  30    0.0081554425605792
  31    -0.0031750237249241
  32    0.0018996511303551
  33    -0.001715000526408
  34    0.00016002627819947
  35    -7.6673538432959e-05
  36    -3.1459441421491e-06
 Sym= A
 Ene=               0
 Spin= Alpha
 Occup=    1.00000
   1    -0.0012523995107391
   2    -8.2386609220407e-05
   3    1.5725876100885e-06
   4    7.0000863184812e-05
   5    -4.4709771790953e-07
   6    0.00072518943059028
   7    -0.0018877595191086
   8    7.9898682072488e-05
   9     0.001044762681236
  10    -2.2388483619835e-06
  11      0.66176928857535
  12     0.010873234008339
  13    -0.0013482541233668
  14    0.00015829130763499
  15    -0.00010477641012145
  16    -0.0010512011973409
  17    -2.4123658533089e-05
  18    -2.5941611594393e-05
  19      0.28190489112642
  20    0.0031795543813502
  21    -0.00027470930442365
  22    0.0016253624175494
  23    -3.4028162245692e-05
  24    -0.0024707698288099
  25      0.63530914185625
  26     0.010288488504476
  27    0.0014409971746837
  28    3.6779007926127e-05
  29    0.00011053840124275
  30      0.26585472343234
  31    0.0029529651431312
  32    0.00040877842202613
  33    0.0015351917597484
  34    1.898654185295e-05
  35    -0.0011123604527338
  36    -0.0025687033614311
 Sym= A
 Ene=               0
 Spin= Alpha
 Occup=    1.00000
   1    -2.4512546863833e-05
   2    -1.79776543882e-06
   3    6.6946547483062e-05
   4    -1.4681270682127e-06
   5    5.2926796828231e-06
   6    3.2962178351747e-05
   7    -3.5404011946036e-05
   8    -0.0014034521522818
   9    8.3354479471236e-05
  10    -0.00010886956448935
  11     -0.59778352360877
  12    -0.013402942934174
  13    -0.0019448134073349
  14    0.00010588617125327
  15    -0.00015130109229525
  16    -0.0013426864067024
  17    -4.0114881811479e-05
  18    3.9083672019593e-05
  19     -0.34140468835124
  20    -0.0046579166229912
  21    0.00015897673101665
  22    -0.0013752009593849
  23    2.3023512380108e-05
  24    -0.0023228483411463
  25       0.6269938167701
  26     0.013888329756968
  27    -0.0018812969043955
  28    7.5992987463483e-05
  29    -0.00014606233642334
  30      0.35178445429552
  31    0.0047533851084685
  32    0.00030321640240286
  33    0.0014278028853816
  34    1.1566076461945e-05
  35    0.0013014001217029
  36    0.0022095152381195
 Sym= A
 Ene=               0
 Spin= Alpha
 Occup=    1.00000
   1    -0.0028329738996892
   2    8.447280778986e-08
   3    -1.4987126422463e-05
   4    1.0123527756564e-05
   5    -1.2584687578398e-06
   6    -0.011839286475494
   7    -0.0046994391756742
   8    0.0003207716424377
   9    0.0020223850811295
  10    8.3895018590615e-06
  11     -0.30414414829195
  12    -0.0089143166946594
  13    0.0012054709849527
  14    -0.0025558974961091
  15    0.00011322439299398
  16    -0.0022361875617555
  17    -3.5566466304241e-05
  18    -4.843630745893e-05
  19      0.69965491097567
  20     0.016607381867373
  21    0.00094774861128024
  22    -0.0016564544729059
  23    8.6141219311902e-05
  24    0.00088312832353109
  25     -0.24113830344339
  26    -0.0068604797424555
  27    -0.0014613047265748
  28    -0.0020330196758781
  29    -9.6463756037324e-05
  30      0.59187880323883
  31     0.013984589128432
  32    -0.0009061862946363
  33    -0.001268781154879
  34    -6.0025228331876e-05
  35    -0.0026388542702653
  36    0.0011138875663916
 Sym= A
 Ene=               0
 Spin= Alpha
 Occup=    1.00000
   1    0.00025398948449386
   2    7.2732285654286e-09
   3    -0.00017388252547966
   4    6.9121402171915e-06
   5    -1.3606008519774e-05
   6    0.0010495653884987
   7    0.00041962904504986
   8    0.0025823509167021
   9    -0.00029785109113679
  10    0.00020146167218537
  11     -0.32110061029148
  12    -0.010640133581309
  13    -0.00045536603135787
  14    -0.0020393405917945
  15    -1.8639328974302e-05
  16    0.0024978401179255
  17    7.6834171597908e-05
  18    -6.9249446722396e-05
  19      0.55249096244153
  20     0.013430857378656
  21    0.00081682360720049
  22    -0.0015972522647098
  23    7.5706331830261e-05
  24    -0.0013502676540126
  25       0.3687904202198
  26     0.012030665080263
  27    -1.3866939939337e-05
  28    0.0024698939485729
  29    -2.0518280219754e-05
  30     -0.66786176147832
  31    -0.016158953460094
  32     0.001135029266018
  33    0.0017679393148954
  34    7.3731642087315e-05
  35    -0.002062297101511
  36     0.001175804992407
 Sym= A
 Ene=               0
 Spin= Alpha
 Occup=    1.00000
   1      0.99511248433517
   2     0.021511110031689
   3    -5.7899904864844e-05
   4    -0.0013313657220971
   5    5.0421852033204e-06
   6    -0.026000282266957
   7    -0.0050465579958781
   8    -0.00013790371824755
   9    -0.0030399853047234
  10    1.3190512671115e-05
  11    0.00013668371424288
  12    -1.2748109901434e-05
  13    -1.4997414142341e-05
  14    -2.5311499726854e-05
  15    -9.7611705522863e-07
  16    -4.979980533254e-05
  17    -0.0038447516234937
  18    -0.0038416515487658
  19    0.0019962203464214
  20    0.00014780014419536
  21    1.8323500827932e-05
  22    5.4863057326622e-05
  23    9.876048155514e-07
  24    -9.8957994002831e-06
  25    0.00013682274649673
  26    -1.2791927190632e-05
  27    1.265073379184e-05
  28    -2.6587864558888e-05
  29    1.2311797753982e-06
  30    0.0019979176045537
  31    0.00014797779777908
  32    -1.3422591909202e-05
  33    5.6276567175235e-05
  34    -1.7038427938925e-06
  35    -4.9805009531322e-05
  36    -9.8936479905935e-06
 Sym= A
 Ene=               0
 Spin= Alpha
 Occup=    1.00000
   1    -0.049676753120898
   2      0.13891343228867
   3    -0.0023972198127989
   4     -0.05323670803128
   5    0.00023453747812864
   6     -0.11333676814354
   7      0.31019393402636
   8    -0.0018783575627295
   9    -0.041650539443697
  10    0.00019289535543732
  11     -0.10139904797522
  12      0.27609865483212
  13     0.033874845586037
  14     0.070663176184445
  15    0.0020640927739734
  16     0.046900136707769
  17     0.023842255481672
  18      0.02382077251969
  19     -0.10563094616954
  20      0.28840060050761
  21     0.071193752082333
  22    -0.035299068019312
  23    0.0057869828448906
  24     0.043611402794322
  25     -0.10139795653861
  26      0.27609595147284
  27    -0.027363660469507
  28     0.073408583749071
  29    -0.0027132380283065
  30     -0.10563074481747
  31      0.28839954739993
  32    -0.074088701401309
  33    -0.028780652350732
  34    -0.0055084733458807
  35     0.046900082267421
  36     0.043611963559209
 Sym= A
 Ene=               0
 Spin= Alpha
 Occup=    1.00000
   1     -0.15614297612874
   2      0.45488545958862
   3    -0.0043342771175015
   4    -0.097086936027957
   5    0.00041318643924614
   6     -0.12598764590529
   7      0.36982117478662
   8     0.006609481323798
   9       0.1454912081168
  10    -0.0006580024350705
  11     0.087838632196738
  12     -0.26122716875414
  13    -0.034748946271283
  14    -0.015790634630673
  15    -0.0025587781511235
  16    0.0003252268918603
  17      0.10978638015624
  18      0.10968351202375
  19     0.012024328079757
  20    -0.027853965893777
  21      0.01795272548048
  22      0.10588114946206
  23    0.00053911295999702
  24    -0.062131706172365
  25     0.087819509839636
  26     -0.26117122838008
  27     0.033203594118354
  28    -0.018817576413094
  29    0.0027124382929807
  30     0.011990017066669
  31    -0.027754278306827
  32    -0.0083317618776978
  33      0.10705348305508
  34    -0.0015065570623084
  35    0.00029767921659228
  36     -0.06214558952472
 Sym= A
 Ene=               0
 Spin= Alpha
 Occup=    1.00000
   1    1.5531955755604e-05
   2    -4.8271492518256e-05
   3     0.018552570800393
   4    -0.00081915943434341
   5    0.0013699079201341
   6    1.8667525294148e-05
   7    -5.5825176989067e-05
   8      0.12821055714521
   9    -0.0057646198653616
  10    0.0098300358683289
  11     0.096540026493302
  12     -0.28734302013589
  13     0.095269169975251
  14    -0.098250956252675
  15    0.0080824460373076
  16      0.11676817059018
  17    0.0084289893576889
  18    -0.0084472860675179
  19      0.13812832905426
  20     -0.41613140506623
  21    -0.0006774686171951
  22     0.073875122086229
  23    -0.00068279703060032
  24     0.079771281985839
  25    -0.096566859157771
  26      0.28742515263614
  27      0.10373468239541
  28     0.089324481486076
  29    0.0072359020191546
  30     -0.13812722886659
  31      0.41612622522904
  32    -0.0073337046603816
  33    -0.073548767857425
  34    -3.1584097031943e-05
  35     -0.11677167715471
  36    -0.079749090655376
 Sym= A
 Ene=               0
 Spin= Alpha
 Occup=    1.00000
   1     -0.12134168487369
   2      0.38467121888066
   3    0.0029323185837929
   4     0.062478417718434
   5    -0.00030872280813538
   6     0.059712288976306
   7     -0.20126557068013
   8    0.0091184719549742
   9      0.20111556126853
  10    -0.00092471740903757
  11    -0.088675176710868
  12      0.29378753705607
  13     0.057525525928308
  14     -0.12037712358355
  15    0.0053914181047612
  16    -0.084185521784239
  17      0.15349564250952
  18      0.15332748650872
  19     0.072483159397353
  20      -0.2328235948547
  21    -0.034396555813118
  22    -0.091467054314209
  23    -0.0019489766475596
  24      0.13744101158659
  25    -0.088654373562245
  26      0.29372221146074
  27    -0.068178750971741
  28      -0.1147442967316
  29    -0.0043196478695633
  30     0.072486968559405
  31     -0.23283654232105
  32      0.02600435354051
  33    -0.094131668769448
  34     0.002794994911833
  35    -0.084189028547188
  36      0.13747031840093
 Sym= A
 Ene=               0
 Spin= Alpha
 Occup=    1.00000
   1    -2.8005716914738e-06
   2    1.5435649223416e-05
   3     -0.10846875768187
   4    0.0047861187329404
   5    -0.0079879513966548
   6    -3.9664940282084e-05
   7    0.00013028846726675
   8     -0.22537641387698
   9     0.010155282273915
  10    -0.017229826419703
  11      0.09597653470905
  12     -0.31849898745016
  13      0.13046097260258
  14     0.072528050945351
  15    0.0094683643595071
  16     -0.16819089183269
  17     -0.06487271086534
  18     0.064800687040807
  19     -0.06381746455464
  20      0.22040259505788
  21    -0.036738247404602
  22       0.2079490830383
  23    -0.0044275039175105
  24      0.22623500011074
  25    -0.096004340712294
  26      0.31859763281558
  27      0.12327513108111
  28     -0.08401656814757
  29     0.010176580692382
  30       0.0638806202563
  31     -0.22061184576349
  32    -0.055478996161458
  33     -0.20376719857904
  34    -0.0025635866251957
  35      0.16802832339232
  36     -0.22617445914574
 Sym= A
 Ene=               0
 Spin= Alpha
 Occup=    1.00000
   1     0.040798709464004
   2     -0.13990234942766
   3    -0.0076695738035065
   4     -0.16746841742306
   5    0.00076845272835778
   6    -0.094433780441457
   7      0.31512690062615
   8    -0.002015384727841
   9    -0.046007673409693
  10    0.00023112330616503
  11    -0.015887053570371
  12     0.053576194585096
  13      0.17827351719305
  14    -0.055045548023069
  15     0.014172712463307
  16     -0.26226471415733
  17     -0.12392650294396
  18     -0.12377815846927
  19     0.069399963512626
  20     -0.23562697164883
  21      0.26297415735688
  22     0.040158577788656
  23     0.019957671851194
  24    -0.017172529165608
  25     -0.01581615849078
  26     0.053337779845732
  27     -0.18260914344905
  28    -0.038779896070976
  29     -0.01375406737195
  30     0.069344893500568
  31     -0.23543563765756
  32     -0.25822903076829
  33     0.063670037220435
  34    -0.020408493395739
  35     -0.26241044899296
  36    -0.016985478297241
 Sym= A
 Ene=               0
 Spin= Alpha
 Occup=    1.00000
   1    -0.042153146710527
   2       0.1634820594518
   3      0.01381534746373
   4       0.2991646938129
   5    -0.0013527744977769
   6     0.064379886559597
   7     -0.22201174421866
   8    -0.0078105095887903
   9     -0.17301690591107
  10    0.00076710607761542
  11     0.011557375225716
  12    -0.053172448528438
  13      0.10039616478968
  14      0.25580233993756
  15    0.0056894590657532
  16     -0.11785642170406
  17       0.1882021171694
  18      0.18778424705139
  19    -0.0082592188735896
  20     0.013186583444433
  21       0.1294932565773
  22     -0.14370144162544
  23     0.011120699300106
  24      -0.2238988178204
  25     0.011515103812803
  26    -0.053024121869778
  27    -0.076856598451496
  28      0.26364625272201
  29    -0.0080324397728117
  30    -0.0082139966833486
  31     0.013027292452299
  32     -0.14200108090515
  33     -0.13155344675077
  34    -0.0098860401031428
  35      -0.1177311312744
  36     -0.22406288449586
 Sym= A
 Ene=               0
 Spin= Alpha
 Occup=    1.00000
   1    6.9793491758475e-05
   2    -0.00029696119465777
   3      0.47366581567467
   4    -0.021339258186656
   5     0.034633338018707
   6    -5.2153994974088e-05
   7    0.00019509010812288
   8      0.17218192995532
   9    -0.0078702234982721
  10     0.013003997450364
  11     0.020009318095712
  12    -0.075430770688197
  13     0.034934956809286
  14      0.12902538434916
  15    0.0016787872674602
  16    -0.099932170808604
  17      0.35706849411398
  18     -0.35732344666177
  19     -0.02660117009831
  20     0.094634119189145
  21    -0.096510571466541
  22    -0.076221874774723
  23    -0.0068381890689888
  24      0.15188477203401
  25    -0.019996688871788
  26      0.07540072931933
  27     0.023129854967912
  28     -0.13207970579214
  29    0.0028601811283958
  30     0.026613099053228
  31    -0.094651811481152
  32    -0.089264073499336
  33     0.084946752032647
  34    -0.0075663416738648
  35     0.099992555079561
  36     -0.15157108322448
 Sym= A
 Ene=               0
 Spin= Alpha
 Occup=    1.00000
   1    6.3933788772642e-06
   2    -2.7835354892609e-05
   3      0.05387160294007
   4    -0.0023999496077227
   5    0.0039246941616752
   6    -2.9349994351844e-06
   7    1.3142562327136e-05
   8     0.094969802891206
   9    -0.0042963218524339
  10    0.0072601221398802
  11     0.013334779242788
  12     -0.03701168398563
  13     -0.05231480779907
  14     -0.29393587797877
  15    -0.0016990385477028
  16     -0.28603321536811
  17     0.037293526419342
  18     -0.03729408139131
  19     0.023048247400037
  20    -0.075397020441471
  21     -0.28719694745602
  22      0.20663846583072
  23    -0.023797350854812
  24     -0.23208386352955
  25    -0.013332063700455
  26     0.037004593251785
  27    -0.025613035167381
  28      0.29737855597542
  29    -0.0043713596522253
  30    -0.023048696899489
  31     0.075401577015169
  32      -0.3046825813068
  33     -0.18003227350787
  34    -0.022053087527442
  35      0.28604546786414
  36      0.23210782304202
 Sym= A
 Ene=               0
 Spin= Alpha
 Occup=    1.00000
   1    -0.023039304093819
   2     0.066228785817958
   3     -0.01712028348245
   4     -0.38026628905905
   5    0.0017249949798371
   6    0.0070814375959059
   7    -0.052430010792977
   8     0.018790425536521
   9      0.41038726489451
  10    -0.0018351687909023
  11    -0.015896491380792
  12      0.04923296141417
  13     -0.11650375831927
  14      0.25252184291929
  15     -0.01100324449006
  16    -0.080640681268377
  17     -0.16252891869229
  18     -0.16265425045103
  19    0.0065254395405075
  20    -0.037071256281985
  21    -0.058396699463369
  22     -0.29163087767802
  23    -0.0022243929270899
  24     -0.10943361932334
  25    -0.015913528124362
  26     0.049301400351023
  27      0.13880833538807
  28      0.24091133040375
  29     0.008779923504817
  30    0.0065308846361312
  31    -0.037084630682441
  32     0.031559218997237
  33     -0.29544886809719
  34    0.0048589871266052
  35      -0.0804088042866
  36     -0.10961559126858
 Sym= A
 Ene=               0
 Spin= Alpha
 Occup=    1.00000
   1    -0.0050182776127809
   2    0.0098648919773231
   3    -0.0050471677804171
   4     -0.11136611029981
   5    0.0005020138797692
   6     0.029453248103212
   7       -0.122421374431
   8    0.0082046785317658
   9      0.17965778071357
  10    -0.00080842920905975
  11    -0.021645247340115
  12     0.099281215245966
  13      0.45021923277351
  14    0.0016541520728863
  15     0.034660736925658
  16      0.21269085809507
  17    -0.046154126575547
  18    -0.046133583379248
  19    0.0063747934753814
  20    -0.023155493947747
  21      -0.1737546572981
  22      0.10812506336935
  23    -0.014261603328607
  24     -0.24240436247874
  25    -0.021647948242678
  26     0.099293103849381
  27     -0.44825217914972
  28     0.041879487449482
  29    -0.034863747911348
  30    0.0063741920434553
  31    -0.023149307469146
  32      0.18271776586541
  33     0.092234204263944
  34     0.013349285776982
  35      0.21275105389517
  36      -0.2424762857822
 Sym= A
 Ene=               0
 Spin= Alpha
 Occup=    1.00000
   1    4.4071768055879e-06
   2    -5.6115176990307e-05
   3      0.23889413770674
   4    -0.010933487135745
   5     0.017231754636554
   6    -5.2695480804733e-06
   7    7.6931765622416e-06
   8     -0.42830768303915
   9     0.019391105675091
  10    -0.032868853881031
  11    -0.0030734074462669
  12     0.016786465600218
  13     0.010167475057677
  14     -0.15956431603823
  15    0.0020603994751104
  16      0.15828144092238
  17      0.24590139526814
  18     -0.24615581261835
  19    -0.015642890747477
  20     0.073988949422186
  21      0.27574095742385
  22      0.25031387818018
  23     0.019434771880033
  24      -0.1587977532051
  25    0.0030554162118578
  26    -0.016716630956245
  27      0.02448099524738
  28      0.15814078973455
  29    0.00062454476291509
  30     0.015654210747659
  31     -0.07403797364616
  32      0.25212385682318
  33     -0.27412344001794
  34     0.021821438086723
  35      -0.1582710554482
  36      0.15868081869534
 Sym= A
 Ene=               0
 Spin= Alpha
 Occup=    1.00000
   1    -1.2209731763069e-05
   2    4.8923755868859e-05
   3    -0.020062012657526
   4     0.002173423433697
   5      0.27822721655972
   6    8.7093811221423e-06
   7    -3.7864968176859e-05
   8    -0.033256160708203
   9    0.0034667766104885
  10      0.43547338398134
  11    1.2588227462434e-05
  12    -5.4680454038155e-05
  13    -0.023880053234174
  14    0.0024611491027515
  15      0.31014765652642
  16    -3.2231313326555e-05
  17    0.00027640366015375
  18    -0.00026846277130481
  19    -7.6095188643224e-06
  20    8.2207457331047e-05
  21    -0.026068221251527
  22     0.002723045136364
  23      0.33830597133395
  24    -1.0385291609967e-05
  25    -8.8550732439142e-06
  26    3.8987790778543e-05
  27     -0.02388598090217
  28     0.002497855912385
  29      0.31014647327794
  30    -1.4926804370128e-06
  31    -4.4251551377325e-05
  32    -0.026072703309573
  33    0.0026967903667473
  34      0.33831011443212
  35    3.6877557229296e-05
  36    8.5468539487876e-06
 Sym= A
 Ene=               0
 Spin= Alpha
 Occup=    1.00000
   1    -2.0459791978632e-05
   2    8.9819496059569e-05
   3    -0.040332057752664
   4    0.0043513618559946
   5      0.55774282601753
   6    9.4569108737854e-06
   7    -4.2761335144767e-05
   8    -0.034640047229529
   9    0.0035956185901108
  10      0.45220088518339
  11    2.1919266114793e-06
  12    -1.7968441925379e-05
  13     0.029554596380879
  14    -0.003129331226579
  15     -0.38278192161746
  16    1.9649173072265e-05
  17    0.00032155439672856
  18    -0.00033605455898639
  19    -6.9285867737012e-05
  20    0.00035648535150864
  21     0.011788552774032
  22    -0.00095700566929302
  23     -0.14997501457086
  24    -5.6341380275897e-05
  25    -6.301051966038e-06
  26    3.5425158220579e-05
  27     0.029567875692712
  28    -0.0029951159881898
  29     -0.38274633845959
  30    7.2476964653419e-05
  31    -0.00037094653821183
  32     0.011761417054558
  33    -0.0014637127055324
  34     -0.14991968746284
  35    -1.796430384423e-05
  36    5.5502842995646e-05
 Sym= A
 Ene=               0
 Spin= Alpha
 Occup=    1.00000
   1    -2.5040729298499e-06
   2    2.5211090878111e-05
   3    3.856778792923e-06
   4    4.0353753118206e-05
   5    -2.3152802830476e-05
   6    -1.1264298128088e-06
   7    -2.499753723785e-05
   8    -3.2405868234144e-06
   9    -3.0994919842341e-05
  10    -2.6085167420926e-05
  11    -3.9895529691333e-06
  12    1.7750252273852e-05
  13     0.030881294888978
  14    -0.0032171622937744
  15     -0.40099317975602
  16    -9.8385582097407e-06
  17    -1.2865694512203e-05
  18    -1.0361593390936e-05
  19    -4.886132841634e-06
  20    2.1868410820884e-05
  21     0.041377224151406
  22    -0.0042410360186494
  23     -0.53667962096644
  24    7.6729216265076e-06
  25    1.4232898119748e-06
  26    -6.6093672150878e-06
  27    -0.030895770416644
  28    0.0031898287034703
  29      0.40103360261396
  30    -1.692566310014e-05
  31    7.6742479088107e-05
  32    -0.041378387911974
  33    0.0043585872975758
  34      0.53668726789543
  35    -6.6066576806227e-08
  36    2.6912800647543e-06
 Sym= A
 Ene=               0
 Spin= Alpha
 Occup=    0.00000
   1    -1.6631668450309e-05
   2    8.9325994859526e-05
   3    -0.044973524894619
   4    0.0048551241504693
   5      0.62048834762031
   6    -2.2850392672722e-06
   7    1.3218096707883e-05
   8     0.024789868481499
   9    -0.0026073102660722
  10     -0.32400167959365
  11    2.2249034335989e-05