[Molden Format]
made by pyscf v[2.0.1]
[Atoms] (AU)
C   1   6    -5.04451050595896     2.09105754587622    -0.02271450801727
C   2   6    -2.55177277504519     1.75663271361194     0.00115273293598
H   3   1    -6.23743791661315     0.88682957299714    -1.17692143037912
H   4   1    -5.89923363209974     3.57003280000582     1.11193374895533
H   5   1    -1.35897764521972     2.96093627553601     1.15539744982032
H   6   1    -1.69687957355320     0.27769525400484    -1.13343883225288
[GTO]
1 0
 s    6 1.00
           742.7370491  0.0091635962805161
           136.1800249    0.04936149294278
           38.09826352    0.16853830490949
           13.08778177    0.37056279972087
           5.082368648    0.41649152982346
           2.093200076    0.13033408410734
 s    6 1.00
            30.4972395  -0.013252788089787
           6.036199601  -0.046991710139244
           1.876046337  -0.033785371509457
           0.721782647    0.25024178609598
          0.3134706954    0.59511725259043
           0.143686555    0.24070617629613
 p    6 1.00
            30.4972395  0.0037596966004791
           6.036199601   0.037679369804802
           1.876046337    0.17389674352216
           0.721782647    0.41803643475328
          0.3134706954    0.42585954775427
           0.143686555    0.10170829551296

2 0
 s    6 1.00
           742.7370491  0.0091635962805161
           136.1800249    0.04936149294278
           38.09826352    0.16853830490949
           13.08778177    0.37056279972087
           5.082368648    0.41649152982346
           2.093200076    0.13033408410734
 s    6 1.00
            30.4972395  -0.013252788089787
           6.036199601  -0.046991710139244
           1.876046337  -0.033785371509457
           0.721782647    0.25024178609598
          0.3134706954    0.59511725259043
           0.143686555    0.24070617629613
 p    6 1.00
            30.4972395  0.0037596966004791
           6.036199601   0.037679369804802
           1.876046337    0.17389674352216
           0.721782647    0.41803643475328
          0.3134706954    0.42585954775427
           0.143686555    0.10170829551296

3 0
 s    6 1.00
           35.52322122  0.0091635962807908
           6.513143725    0.04936149294426
           1.822142904    0.16853830491455
           0.625955266    0.37056279973198
           0.243076747    0.41649152983594
           0.100112428    0.13033408411125

4 0
 s    6 1.00
           35.52322122  0.0091635962807908
           6.513143725    0.04936149294426
           1.822142904    0.16853830491455
           0.625955266    0.37056279973198
           0.243076747    0.41649152983594
           0.100112428    0.13033408411125

5 0
 s    6 1.00
           35.52322122  0.0091635962807908
           6.513143725    0.04936149294426
           1.822142904    0.16853830491455
           0.625955266    0.37056279973198
           0.243076747    0.41649152983594
           0.100112428    0.13033408411125

6 0
 s    6 1.00
           35.52322122  0.0091635962807908
           6.513143725    0.04936149294426
           1.822142904    0.16853830491455
           0.625955266    0.37056279973198
           0.243076747    0.41649152983594
           0.100112428    0.13033408411125

[5d]
[7f]
[9g]

[MO]
 Sym= A
 Ene=               0
 Spin= Alpha
 Occup=    1.00000
   1      0.67861031767452
   2     -0.17263444105253
   3    -0.088450816656593
   4     0.011869436833055
   5    -0.00084421171223112
   6      0.67861344060375
   7     -0.17263538192503
   8     0.088451149155264
   9    -0.011862246749907
  10    0.00085014357747498
  11    -0.029310363852641
  12    -0.029306778334712
  13    -0.029305913062243
  14    -0.029312178381201
 Sym= A
 Ene=               0
 Spin= Alpha
 Occup=    1.00000
   1     -0.67630435457659
   2      0.14232555005364
   3    -0.077182531415595
   4     0.010359207620104
   5    -0.00073597688665077
   6      0.67630091241444
   7     -0.14232496796739
   8    -0.077182320887938
   9     0.010350718214296
  10    -0.00074308029476346
  11     0.090255992178043
  12     0.090262885675818
  13    -0.090261670153284
  14    -0.090255399816206
 Sym= A
 Ene=               0
 Spin= Alpha
 Occup=    1.00000
   1      -0.1817016626982
   2     -0.62177365629847
   3    -0.048776292169156
   4    0.0065157905596614
   5    -0.00048835125311467
   6     -0.18170176404733
   7     -0.62177365799533
   8     0.048768658919967
   9    -0.0065693094788789
  10    0.00044356875522251
  11     -0.19741420610461
  12     -0.19745326552717
  13     -0.19745288211698
  14     -0.19741493462029
 Sym= A
 Ene=               0
 Spin= Alpha
 Occup=    1.00000
   1    -0.079917894017376
   2    -0.083796224952664
   3     -0.60061463827493
   4     0.080596391811044
   5    -0.0057334416862606
   6    -0.079923242149653
   7    -0.083805242725569
   8      0.60061544640515
   9    -0.080565899250564
  10    0.0057591006241769
  11       0.2442552028119
  12      0.24426738517196
  13      0.24425335474992
  14       0.2442619054014
 Sym= A
 Ene=               0
 Spin= Alpha
 Occup=    1.00000
   1    -1.4049190728082e-05
   2    -1.5309379417273e-05
   3    -0.042308735090973
   4     -0.33570430619139
   5     -0.28636454824944
   6    9.9191336308702e-06
   7    1.3249662565888e-05
   8     0.042297731271153
   9      0.33570816052648
  10      0.28636665291323
  11      0.38954928339382
  12     -0.38955833936565
  13      0.38956883810396
  14     -0.38954432859514
 Sym= A
 Ene=               0
 Spin= Alpha
 Occup=    1.00000
   1    3.3036692219176e-07
   2    1.9138508495946e-07
   3    -0.065816528020874
   4     -0.45209026988515
   5      0.53970568952609
   6    3.1457056336103e-07
   7    -4.3222817300545e-07
   8     0.065816129502899
   9      0.45208844995924
  10     -0.53970789479431
  11    1.4210175443052e-06
  12    1.7791835682135e-06
  13    2.3401368250501e-06
  14    1.9819806416495e-06
 Sym= A
 Ene=               0
 Spin= Alpha
 Occup=    1.00000
   1      0.20567203224888
   2       0.5084951707658
   3     -0.22857052351066
   4     0.030662812780598
   5    -0.0022252833787987
   6     -0.20567088010843
   7     -0.50849342423562
   8     -0.22857931571768
   9     0.030675933008112
  10    -0.0022152588924121
  11      0.27015127125359
  12      0.27010558038929
  13     -0.27013066641881
  14     -0.27013371537498
 Sym= A
 Ene=               0
 Spin= Alpha
 Occup=    1.00000
   1    -8.2855701995951e-06
   2    -2.3431796597163e-05
   3     0.049586084900821
   4      0.39350178236675
   5       0.3356677457471
   6    -2.1764185067717e-05
   7    -5.6867956872664e-05
   8      0.04955307707719
   9       0.3935048189161
  10      0.33566397898176
  11     -0.33914022974817
  12      0.33913444081118
  13      0.33911517294172
  14     -0.33915410355321
 Sym= A
 Ene=               0
 Spin= Alpha
 Occup=    0.00000
   1    -7.4429746691117e-06
   2    -1.8396695109477e-05
   3     0.065828075212617
   4      0.45208821281809
   5     -0.53970663596009
   6    7.1603334365585e-06
   7    1.7541577368658e-05
   8     0.065827737895526
   9      0.45208740512998
  10     -0.53970672146565
  11    -1.132951032681e-05
  12    -1.187260821874e-05
  13    1.1987236801399e-05
  14    1.1435287696663e-05
 Sym= A
 Ene=               0
 Spin= Alpha
 Occup=    0.00000
   1     0.017898708543756
   2     -0.49664785832817
   3     0.015799216538546
   4      0.18072813587159
   5      0.15331110120192
   6    -0.0058130417649597
   7      0.12979829179927
   8     -0.47301993065949
   9     0.010310496054966
  10    -0.049048685487158
  11      0.59719078358782
  12      0.29382775662064
  13     0.091447538309299
  14     0.046134753142671
 Sym= A
 Ene=               0
 Spin= Alpha
 Occup=    0.00000
   1    0.0013931809169128
   2     -0.02506754965781
   3    -0.072767520217339
   4      0.22212317248715
   5      0.17719008424595
   6    -0.010115167758557
   7      0.28981388187723
   8      0.20717259599057
   9     -0.23292326536242
  10     -0.16984793206804
  11      0.14697172983049
  12     -0.16864294886449
  13      -0.2096956548061
  14     -0.51095043934388
 Sym= A
 Ene=               0
 Spin= Alpha
 Occup=    0.00000
   1    0.0013931809169128
   2     -0.02506754965781
   3    -0.072767520217339
   4      0.22212317248715
   5      0.17719008424595
   6    -0.010115167758557
   7      0.28981388187723
   8      0.20717259599057
   9     -0.23292326536242
  10     -0.16984793206804
  11      0.14697172983049
  12     -0.16864294886449
  13      -0.2096956548061
  14     -0.51095043934388
 Sym= A
 Ene=               0
 Spin= Alpha
 Occup=    0.00000
   1    0.00098243315178046
   2    -0.032748651135863
   3    -0.084274910912445
   4     -0.20392748497675
   5         -0.1811008658
   6    0.0062111106699928
   7     -0.18559480430434
   8     -0.37693211464019
   9     -0.31911778382518
  10     -0.31327487175782
  11     -0.23545533194483
  12      0.23225672781293
  13      0.65566766354785
  14    -0.040233540835939
 Sym= A
 Ene=               0
 Spin= Alpha
 Occup=    0.00000
   1    0.00087404507695071
   2     -0.01869616009386
   3     -0.09309236870438
   4     -0.30189362719986
   5     -0.26423611747196
   6    -0.0038637745993542
   7      0.10944469698854
   8       0.1200399154647
   9      0.47218729995783
  10      0.41016776102828
  11     -0.21304817103033
  12      0.20696049665652
  13      -0.5071706990631
  14      0.25880037496364
