[Molden Format]
made by pyscf v[2.0.1]
[Atoms] (AU)
C   1   6    -2.86019497583545     4.84822465340039    -0.01207534993597
C   2   6    -2.97920992716056     2.21517475773766    -0.00017007535121
C   3   6    -4.63489347119824    -1.96234829953210    -0.09429733361580
H   4   1     1.34799833643600     0.99095348246067     0.34300418886980
H   5   1    -0.90555675889158     5.86145800686968     0.13050448616246
H   6   1    -4.71550918767218     6.03232704305285    -0.16457624818837
C   7   6    -5.37568500928899     0.57470350900273    -0.17153044032677
H   8   1    -0.55930224108752    -3.95661407330810     0.23564884773326
C   9   6    -1.70710299188709    -2.09366536792812     0.13239421228703
C   10   6    -0.74043249012708     0.36681473803932     0.18713957811568
H   11   1    -7.39933602430197     1.38327952318163    -0.33399019525563
H   12   1    -5.94611773725020    -3.71501258828245    -0.18114914630081
[GTO]
1 0
 s    6 1.00
           742.7370491  0.0091635962805161
           136.1800249    0.04936149294278
           38.09826352    0.16853830490949
           13.08778177    0.37056279972087
           5.082368648    0.41649152982346
           2.093200076    0.13033408410734
 s    6 1.00
            30.4972395  -0.013252788089787
           6.036199601  -0.046991710139244
           1.876046337  -0.033785371509457
           0.721782647    0.25024178609598
          0.3134706954    0.59511725259043
           0.143686555    0.24070617629613
 p    6 1.00
            30.4972395  0.0037596966004791
           6.036199601   0.037679369804802
           1.876046337    0.17389674352216
           0.721782647    0.41803643475328
          0.3134706954    0.42585954775427
           0.143686555    0.10170829551296

2 0
 s    6 1.00
           742.7370491  0.0091635962805161
           136.1800249    0.04936149294278
           38.09826352    0.16853830490949
           13.08778177    0.37056279972087
           5.082368648    0.41649152982346
           2.093200076    0.13033408410734
 s    6 1.00
            30.4972395  -0.013252788089787
           6.036199601  -0.046991710139244
           1.876046337  -0.033785371509457
           0.721782647    0.25024178609598
          0.3134706954    0.59511725259043
           0.143686555    0.24070617629613
 p    6 1.00
            30.4972395  0.0037596966004791
           6.036199601   0.037679369804802
           1.876046337    0.17389674352216
           0.721782647    0.41803643475328
          0.3134706954    0.42585954775427
           0.143686555    0.10170829551296

3 0
 s    6 1.00
           742.7370491  0.0091635962805161
           136.1800249    0.04936149294278
           38.09826352    0.16853830490949
           13.08778177    0.37056279972087
           5.082368648    0.41649152982346
           2.093200076    0.13033408410734
 s    6 1.00
            30.4972395  -0.013252788089787
           6.036199601  -0.046991710139244
           1.876046337  -0.033785371509457
           0.721782647    0.25024178609598
          0.3134706954    0.59511725259043
           0.143686555    0.24070617629613
 p    6 1.00
            30.4972395  0.0037596966004791
           6.036199601   0.037679369804802
           1.876046337    0.17389674352216
           0.721782647    0.41803643475328
          0.3134706954    0.42585954775427
           0.143686555    0.10170829551296

4 0
 s    6 1.00
           35.52322122  0.0091635962807908
           6.513143725    0.04936149294426
           1.822142904    0.16853830491455
           0.625955266    0.37056279973198
           0.243076747    0.41649152983594
           0.100112428    0.13033408411125

5 0
 s    6 1.00
           35.52322122  0.0091635962807908
           6.513143725    0.04936149294426
           1.822142904    0.16853830491455
           0.625955266    0.37056279973198
           0.243076747    0.41649152983594
           0.100112428    0.13033408411125

6 0
 s    6 1.00
           35.52322122  0.0091635962807908
           6.513143725    0.04936149294426
           1.822142904    0.16853830491455
           0.625955266    0.37056279973198
           0.243076747    0.41649152983594
           0.100112428    0.13033408411125

7 0
 s    6 1.00
           742.7370491  0.0091635962805161
           136.1800249    0.04936149294278
           38.09826352    0.16853830490949
           13.08778177    0.37056279972087
           5.082368648    0.41649152982346
           2.093200076    0.13033408410734
 s    6 1.00
            30.4972395  -0.013252788089787
           6.036199601  -0.046991710139244
           1.876046337  -0.033785371509457
           0.721782647    0.25024178609598
          0.3134706954    0.59511725259043
           0.143686555    0.24070617629613
 p    6 1.00
            30.4972395  0.0037596966004791
           6.036199601   0.037679369804802
           1.876046337    0.17389674352216
           0.721782647    0.41803643475328
          0.3134706954    0.42585954775427
           0.143686555    0.10170829551296

8 0
 s    6 1.00
           35.52322122  0.0091635962807908
           6.513143725    0.04936149294426
           1.822142904    0.16853830491455
           0.625955266    0.37056279973198
           0.243076747    0.41649152983594
           0.100112428    0.13033408411125

9 0
 s    6 1.00
           742.7370491  0.0091635962805161
           136.1800249    0.04936149294278
           38.09826352    0.16853830490949
           13.08778177    0.37056279972087
           5.082368648    0.41649152982346
           2.093200076    0.13033408410734
 s    6 1.00
            30.4972395  -0.013252788089787
           6.036199601  -0.046991710139244
           1.876046337  -0.033785371509457
           0.721782647    0.25024178609598
          0.3134706954    0.59511725259043
           0.143686555    0.24070617629613
 p    6 1.00
            30.4972395  0.0037596966004791
           6.036199601   0.037679369804802
           1.876046337    0.17389674352216
           0.721782647    0.41803643475328
          0.3134706954    0.42585954775427
           0.143686555    0.10170829551296

10 0
 s    6 1.00
           742.7370491  0.0091635962805161
           136.1800249    0.04936149294278
           38.09826352    0.16853830490949
           13.08778177    0.37056279972087
           5.082368648    0.41649152982346
           2.093200076    0.13033408410734
 s    6 1.00
            30.4972395  -0.013252788089787
           6.036199601  -0.046991710139244
           1.876046337  -0.033785371509457
           0.721782647    0.25024178609598
          0.3134706954    0.59511725259043
           0.143686555    0.24070617629613
 p    6 1.00
            30.4972395  0.0037596966004791
           6.036199601   0.037679369804802
           1.876046337    0.17389674352216
           0.721782647    0.41803643475328
          0.3134706954    0.42585954775427
           0.143686555    0.10170829551296

11 0
 s    6 1.00
           35.52322122  0.0091635962807908
           6.513143725    0.04936149294426
           1.822142904    0.16853830491455
           0.625955266    0.37056279973198
           0.243076747    0.41649152983594
           0.100112428    0.13033408411125

12 0
 s    6 1.00
           35.52322122  0.0091635962807908
           6.513143725    0.04936149294426
           1.822142904    0.16853830491455
           0.625955266    0.37056279973198
           0.243076747    0.41649152983594
           0.100112428    0.13033408411125

[5d]
[7f]
[9g]

[MO]
 Sym= A
 Ene=               0
 Spin= Alpha
 Occup=    1.00000
   1     0.026985176281127
   2    -0.0037127826010259
   3    0.0001299736969583
   4    0.0028755814116679
   5    -1.2934105599478e-05
   6      0.99498787780735
   7     0.021357867692131
   8    1.8341848619443e-05
   9    0.00040646758255764
  10    -1.5669868932149e-06
  11    -0.0037545523182859
  12    -0.00010909380133449
  13    -5.3726601070128e-06
  14    -4.827004749596e-05
  15    -1.2052906797698e-08
  16    -7.7188369925991e-05
  17    -0.00017767786050099
  18    -0.00017767882378901
  19    0.0082950543982376
  20    -0.0031718219687729
  21    -0.0020466303925819
  22    -0.001538442021944
  23    -0.00014523290231323
  24    -2.8754764589509e-06
  25    -0.0037542942552005
  26    -0.00010907850666564
  27    9.9432123944468e-07
  28    -4.8549801664393e-05
  29    4.7220949468147e-07
  30    0.0082936060858407
  31    -0.003171830721406
  32    0.0018995443767339
  33    -0.0017154111904534
  34    0.00016012588015506
  35    -7.7191620291852e-05
  36    -2.8747338158423e-06
 Sym= A
 Ene=               0
 Spin= Alpha
 Occup=    1.00000
   1    -0.0012697799470834
   2    -8.3281762846809e-05
   3    2.7890253451207e-06
   4    6.9953470259922e-05
   5    -3.5539278708347e-07
   6    0.00081338052124007
   7    -0.0018623100312384
   8    5.4628948773815e-05
   9    0.0010352859122645
  10    -4.1149209614235e-06
  11      0.65351852270538
  12     0.010700664629862
  13    -0.0013864178522703
  14    0.00017399253704717
  15    -0.00010790975127725
  16    -0.0010616331747751
  17    -2.448578808632e-05
  18    -2.4925485025411e-05
  19      0.27240948009623
  20    0.0030112661400992
  21    -0.00027737104739337
  22    0.0016115786873432
  23    -3.4307831781381e-05
  24    -0.0025131204528591
  25      0.64675331622126
  26     0.010550024486712
  27    0.0014176633378551
  28    4.8432272680573e-05
  29    0.00010869667096778
  30      0.26855380430493
  31    0.0029587002385469
  32    0.0004184437415013
  33    0.0015648723397381
  34    1.9667853289688e-05
  35    -0.001076344279671
  36    -0.0025381549542648
 Sym= A
 Ene=               0
 Spin= Alpha
 Occup=    1.00000
   1    -6.6237160819392e-06
   2    -4.6331132107898e-07
   3    6.5653370099286e-05
   4    -2.5576906919517e-06
   5    5.0912685025144e-06
   6    6.8792953101084e-06
   7    -9.4849797642502e-06
   8    -0.0013872669931266
   9    6.7605846445942e-05
  10    -0.0001074184106481
  11     -0.61115242499885
  12    -0.013663282026937
  13    -0.0019232984520275
  14    8.5866988435892e-05
  15    -0.00014924134523135
  16    -0.0013127757262489
  17    -3.9184830348236e-05
  18    3.8925599430105e-05
  19     -0.34124732461573
  20    -0.0045949687168933
  21    0.00017040884920022
  22    -0.0014147719026746
  23    2.4485709230368e-05
  24    -0.0022891540603435
  25      0.61843599168626
  26     0.013783467681598
  27    -0.0019072219386598
  28    8.7943366161221e-05
  29    -0.00014790031170306
  30      0.34402059679267
  31    0.0046227995893088
  32    0.00030234745663631
  33    0.0014116533004804
  34    1.1903334851735e-05
  35    0.0013017854478291
  36    0.0022608798854666
 Sym= A
 Ene=               0
 Spin= Alpha
 Occup=    1.00000
   1    -0.0029500241469565
   2    -1.6745666487025e-06
   3    -2.5456948967607e-06
   4    9.360961719127e-06
   5    -2.8338279796041e-07
   6    -0.012093244747079
   7    -0.0047315392691205
   8    0.0001367028530048
   9    0.0020441167168915
  10    -5.9810021039809e-06
  11     -0.27613015207196
  12    -0.0080551916870829
  13    0.0012300108138707
  14    -0.002402252564861
  15    0.00011366374215357
  16    -0.0024137103764315
  17    -4.0702375649483e-05
  18    -4.3184410574389e-05
  19      0.66009668313599
  20      0.01562392973891
  21    0.00088536352944026
  22    -0.0015271069472012
  23    7.9941143880447e-05
  24    0.00096707762937755
  25     -0.26426544698472
  26    -0.0076660201821085
  27    -0.0014467934683702
  28    -0.0022047593254036
  29    -9.380109074864e-05
  30      0.63927554087363
  31     0.015118581232964
  32    -0.00098369499974366
  33    -0.0013853475184435
  34    -6.475333461452e-05
  35    -0.0024915277280138
  36    0.0010105229792021
 Sym= A
 Ene=               0
 Spin= Alpha
 Occup=    1.00000
   1    5.0487169805672e-05
   2    4.1421306429603e-08
   3    -0.00017460730419703
   4    7.6665782109853e-06
   5    -1.3521430579606e-05
   6    0.00020490277008412
   7    8.0630549749021e-05
   8    0.0026078447589952
   9    -0.00015192221938871
  10    0.00020202178798545
  11     -0.33771411486382
  12    -0.011156595012563
  13    -0.00035579863728193
  14    -0.002217909013297
  15    -1.0076308067172e-05
  16    0.0023391583409883
  17    7.3985453694132e-05
  18    -7.2554569210847e-05
  19      0.60365883384167
  20     0.014619659155247
  21    0.00088128912665167
  22    -0.0017018378639349
  23    8.1041819295085e-05
  24    -0.0012698408594021
  25      0.34684763850661
  26     0.011423152639304
  27    -0.0001052494305142
  28    0.0023171856629276
  29    -2.6882658615379e-05
  30     -0.62581449835685
  31     -0.01514341744557
  32    0.0010652743179839
  33    0.0016640438482418
  34    6.8690014210627e-05
  35    -0.0022555261562159
  36    0.0012364333148439
 Sym= A
 Ene=               0
 Spin= Alpha
 Occup=    1.00000
   1      0.99510164284071
   2     0.021460425484407
   3    -6.1779217721246e-05
   4    -0.0013662124593508
   5    6.1965109410109e-06
   6    -0.026619011301264
   7    -0.0050627424254768
   8    -0.00013748883045074
   9    -0.0030417804733858
  10    1.3767988799811e-05
  11    0.00013511208697553
  12    -1.3065257424082e-05
  13    -1.495314919602e-05
  14    -2.5515008777507e-05
  15    -9.4629409497188e-07
  16    -4.991750388612e-05
  17    -0.0038144497102147
  18    -0.0038144799448156
  19    0.0020619338618426
  20    0.00015131634777292
  21    1.9697176369276e-05
  22    5.5827581295971e-05
  23    1.0699512475264e-06
  24    -9.8913474874445e-06
  25    0.00013509867622967
  26    -1.3067345790551e-05
  27    1.2589765768866e-05
  28    -2.6751392632987e-05
  29    1.1845862782462e-06
  30    0.0020622680585553
  31    0.00015132106008779
  32    -1.4583271741928e-05
  33    5.7361577035757e-05
  34    -1.5764054380578e-06
  35    -4.9918331504091e-05
  36    -9.891506419534e-06
 Sym= A
 Ene=               0
 Spin= Alpha
 Occup=    1.00000
   1    -0.049535656550736
   2      0.13860561532331
   3    -0.0024108503410255
   4     -0.05332967896242
   5    0.00024318521753981
   6     -0.11330473821516
   7      0.31009833256575
   8    -0.0018860418025371
   9    -0.041700265695267
  10    0.00019301232135627
  11     -0.10143128786248
  12      0.27619225701583
  13     0.033885468076323
  14     0.070676401840011
  15    0.0020514445272604
  16     0.046913606337028
  17     0.023609773986891
  18     0.023610015806804
  19     -0.10564828219176
  20       0.2884505958756
  21     0.071192657911611
  22    -0.035323987856703
  23    0.0057578639062015
  24     0.043630786276951
  25     -0.10143010922108
  26      0.27618933447481
  27    -0.027373173103114
  28     0.073422497134293
  29    -0.0027011794574482
  30     -0.10564645984042
  31      0.28844596273683
  32    -0.074089804728457
  33    -0.028807472424666
  34    -0.005478664431646
  35     0.046914857884594
  36     0.043631305787522
 Sym= A
 Ene=               0
 Spin= Alpha
 Occup=    1.00000
   1      -0.1557702558465
   2       0.4541850039585
   3    -0.0044330969386192
   4    -0.098056087761088
   5    0.00044715502371014
   6     -0.12636190124983
   7      0.37096308499134
   8    0.0065714653799112
   9      0.14539513021269
  10    -0.00065248575431044
  11     0.087952327982973
  12     -0.26162051542758
  13    -0.034821034940964
  14    -0.015644031309196
  15    -0.0025662618945797
  16    0.00043156393050025
  17      0.10882246190881
  18      0.10882345277245
  19     0.011846962570338
  20    -0.027322937494307
  21     0.018120798268987
  22      0.10614582430816
  23    0.00054608483604672
  24    -0.062312204013022
  25     0.087951480390313
  26     -0.26161828721031
  27     0.033269993830693
  28    -0.018697331114751
  29    0.0027161144797259
  30     0.011846216786892
  31    -0.027320845087793
  32    -0.0084717169789152
  33       0.1073368509165
  34    -0.001511041368324
  35    0.00043136819156642
  36    -0.062312842667366
 Sym= A
 Ene=               0
 Spin= Alpha
 Occup=    1.00000
   1    -2.3801769187804e-07
   2    6.9878742493819e-07
   3     0.018487221062767
   4    -0.00082931250616739
   5    0.0014320741513847
   6    -1.5843016253194e-07
   7    6.0607141500871e-07
   8      0.12818871848319
   9    -0.0057490026490988
  10    0.0099220168149824
  11     0.096553388798753
  12     -0.28738425012552
  13     0.095264900841142
  14    -0.098247588049971
  15    0.0081155058324875
  16      0.11678100453301
  17    0.0084076665735621
  18    -0.0084073546391841
  19      0.13812695734365
  20      -0.4161248969369
  21    -0.0006659894156773
  22     0.073891409096124
  23    -0.00062931367054993
  24     0.079766095533205
  25     -0.09655560520365
  26      0.28739132423523
  27      0.10374094300683
  28      0.08932181749531
  29    0.0072698141224942
  30     -0.13812736539274
  31      0.41612671828964
  32    -0.0073294156969014
  33    -0.073534114447731
  34    2.1209033639353e-05
  35     -0.11678163833755
  36    -0.079764160142669
 Sym= A
 Ene=               0
 Spin= Alpha
 Occup=    1.00000
   1     -0.12151243775835
   2       0.3856830141161
   3    0.0027234427042654
   4     0.060273232000776
   5    -0.00027293595692256
   6     0.058902838919648
   7     -0.19881760913542
   8    0.0091474609124688
   9      0.20236402776849
  10    -0.00091862486693929
  11    -0.088581781437967
  12      0.29359008531684
  13     0.057693220719534
  14     -0.12104954714275
  15    0.0054266223319356
  16    -0.084624214611808
  17      0.15256234502799
  18      0.15256380851062
  19     0.072732042583273
  20     -0.23362898430293
  21    -0.034062472247101
  22    -0.090944146157745
  23    -0.0018834657522053
  24      0.13774492089239
  25    -0.088580538779018
  26      0.29358622193424
  27    -0.068382899691604
  28     -0.11539477612602
  29    -0.0043479908779706
  30     0.072732623431285
  31     -0.23363128061078
  32     0.025718955696632
  33    -0.093622551909461
  34     0.002731709172042
  35     -0.08462440373674
  36      0.13774700662364
 Sym= A
 Ene=               0
 Spin= Alpha
 Occup=    1.00000
   1    -3.7646484940254e-07
   2    1.2071398253363e-06
   3       -0.107646931572
   4    0.0048301504982908
   5    -0.0083351218427653
   6    1.400236977581e-06
   7    -4.8562414071975e-06
   8     -0.22528933521593
   9     0.010105062792272
  10    -0.017438204057157
  11     0.096013274620002
  12     -0.31862967164906
  13      0.13044391535371
  14      0.07265518432227
  15    0.0094472618799161
  16     -0.16823535400528
  17    -0.064342968000594
  18     0.064345891752764
  19    -0.063888175222775
  20      0.22064451436878
  21    -0.036880151979093
  22      0.20794411321403
  23    -0.0045188695291404
  24      0.22631535503679
  25    -0.096013725374753
  26      0.31863198110543
  27      0.12336529019227
  28    -0.084041909377147
  29     0.010165149074826
  30     0.063886878524676
  31     -0.22064030192373
  32    -0.055481983610886
  33     -0.20380007236177
  34    -0.0026434144595088
  35      0.16824484842769
  36     -0.22631080433335
 Sym= A
 Ene=               0
 Spin= Alpha
 Occup=    1.00000
   1     0.041022377774655
   2     -0.14085620446403
   3    -0.0074439296310249
   4     -0.16466274463357
   5    0.0007468359420522
   6    -0.094021993546929
   7      0.31388602385955
   8    -0.0022036909879595
   9     -0.04864886749998
  10    0.0002271826067077
  11    -0.015537272767622
  12     0.052276616886704
  13      0.17890974512597
  14    -0.053083321075897
  15     0.014210365808086
  16     -0.26295629457413
  17     -0.12288879441926
  18     -0.12288791641156
  19     0.069075389117927
  20     -0.23465025653502
  21      0.26413932215462
  22     0.039706498606176
  23     0.020040203931704
  24    -0.018861576418347
  25    -0.015539944091472
  26     0.052285586849898
  27     -0.18297102036412
  28    -0.036856209748805
  29    -0.013800895998104
  30     0.069077895312489
  31     -0.23465934547015
  32     -0.25948850917149
  33     0.063185253305377
  34    -0.020494336940742
  35     -0.26295203367901
  36    -0.018868658875394
 Sym= A
 Ene=               0
 Spin= Alpha
 Occup=    1.00000
   1     -0.04311335347595
   2      0.16732885617063
   3     0.013515317945794
   4      0.29908069350905
   5    -0.0013541271040317
   6     0.065168178018984
   7     -0.22496798027647
   8    -0.0077060204406296
   9     -0.17044564814145
  10    0.00076918683119046
  11     0.011392721812303
  12    -0.052593858083925
  13      0.09917877964527
  14      0.25661902324559
  15    0.0055836237315275
  16     -0.11615092868976
  17      0.18920623573913
  18      0.18921092053345
  19    -0.0085091988728262
  20      0.01402825079351
  21       0.1271473609937
  22     -0.14505034360419
  23     0.010952220258383
  24     -0.22405547278528
  25     0.011391989867866
  26    -0.052590826928843
  27    -0.075624058581572
  28      0.26445494747437
  29    -0.0079397878305038
  30    -0.0085084309054783
  31     0.014025893193187
  32     -0.13971524451496
  33     -0.13308176978631
  34    -0.0096958153054716
  35     -0.11615250215624
  36     -0.22406031448097
 Sym= A
 Ene=               0
 Spin= Alpha
 Occup=    1.00000
   1    -6.5619745695758e-07
   2    2.7646071290597e-06
   3      0.47213668596131
   4    -0.021175262466549
   5     0.036562270552015
   6    3.0325361951309e-07
   7    -1.098788674883e-06
   8      0.17401178769393
   9    -0.0078029486482078
  10     0.013468418534262
  11     0.019852620735362
  12    -0.074975896010947
  13     0.034940888386871
  14      0.13085090939449
  15    0.0016388471196597
  16    -0.099354798537423
  17      0.35643964227605
  18     -0.35643805437994
  19    -0.026541959539703
  20     0.094359847831161
  21     -0.09657161895004
  22    -0.078439768632363
  23    -0.0068167612062319
  24      0.15292075826699
  25    -0.019852781334529
  26     0.074976206965634
  27     0.022997048893001
  28     -0.13344563285075
  29    0.0028351330682393
  30     0.026542007017684
  31    -0.094360340010475
  32    -0.089105487263776
  33     0.086763332232381
  34    -0.0075611516323372
  35     0.099352401442505
  36     -0.15292212185696
 Sym= A
 Ene=               0
 Spin= Alpha
 Occup=    1.00000
   1    1.2853430430247e-07
   2    -2.2368070110342e-07
   3     0.055397628023468
   4    -0.0024792966203104
   5    0.0042899057390944
   6    6.4444886175756e-07
   7    -2.0613707706109e-06
   8     0.095965868477475
   9    -0.0043081268987164
  10    0.0074272901914068
  11     0.013395789360257
  12     -0.03725349888677
  13    -0.052212525932669
  14     -0.29333705125193
  15    -0.0016754759822229
  16     -0.28649511548469
  17     0.038439596421627
  18    -0.038434640569359
  19     0.022978341581246
  20    -0.075158177684826
  21     -0.28774008188287
  22        0.206116615654
  23    -0.023809533259891
  24     -0.23147113084153
  25    -0.013395928462892
  26     0.037255232077822
  27    -0.025556011425107
  28      0.29682248633079
  29    -0.0043421155927906
  30    -0.022978303349383
  31     0.075158469186257
  32     -0.30516874604901
  33     -0.17951522752366
  34    -0.022069310982394
  35      0.28650038238121
  36      0.23146394242441
 Sym= A
 Ene=               0
 Spin= Alpha
 Occup=    1.00000
   1    -0.022587841013948
   2     0.064119030155021
   3    -0.017220033431345
   4     -0.38088676572108
   5    0.0017223043016017
   6    0.0065826328584917
   7    -0.050465540758815
   8     0.018527648912566
   9      0.40981433126528
  10    -0.001859914578415
  11     -0.01579898694767
  12     0.048830665231529
  13     -0.11873386158236
  14       0.2516414392918
  15     -0.01115536797602
  16    -0.081423068099897
  17     -0.16380584486265
  18     -0.16379883784977
  19     0.006542398626436
  20    -0.037090947673745
  21    -0.057495145989388
  22     -0.29144704910958
  23    -0.002096261609421
  24     -0.10782537052966
  25    -0.015799728151196
  26     0.048833713741144
  27      0.14095452187375
  28      0.24000031012599
  29    0.0089407525808403
  30    0.0065417825783732
  31    -0.037088594046401
  32     0.030955799868682
  33     -0.29541620799236
  34    0.0047541110030977
  35    -0.081412112028666
  36     -0.10782229343657
 Sym= A
 Ene=               0
 Spin= Alpha
 Occup=    1.00000
   1    -0.0049942934368822
   2    0.0095392414656888
   3    -0.0051263044640331
   4     -0.11347652040448
   5    0.00051245887451777
   6     0.029383578858075
   7     -0.12226232137821
   8    0.0082057372632443
   9      0.18164809846566
  10    -0.00082658906611359
  11    -0.021720994490941
  12     0.099531017081572
  13      0.44963945364262
  14    0.0025819979384973
  15     0.034615287451888
  16      0.21237491749362
  17    -0.047292825312766
  18    -0.047298299048557
  19    0.0064207118311561
  20    -0.023374961501807
  21     -0.17397528781488
  22      0.10696263843526
  23    -0.014254516259616
  24     -0.24279666343556
  25    -0.021720448790042
  26     0.099528841026672
  27     -0.44758574136603
  28     0.042816018048453
  29    -0.034826162549902
  30     0.006421838552275
  31    -0.023379345981118
  32      0.18293477087232
  33      0.09095684953194
  34     0.013362209075659
  35      0.21236338282807
  36     -0.24280114522155
 Sym= A
 Ene=               0
 Spin= Alpha
 Occup=    1.00000
   1    -4.3620678988528e-07
   2    1.9641884148379e-06
   3      0.24056745569906
   4    -0.010791263688497
   5     0.018631553675238
   6    -1.6510812048524e-07
   7    1.3783506861047e-07
   8     -0.42733888226873
   9     0.019168167245191
  10    -0.033071111513861
  11    -0.0030008105344886
  12     0.016502207980535
  13     0.010206794912424
  14     -0.15934291304618
  15    0.0020604542343108
  16      0.15771670503676
  17      0.24773777086292
  18     -0.24773840289798
  19    -0.015724723203786
  20     0.074318588897806
  21      0.27520176706035
  22      0.25015528998621
  23     0.019193210319611
  24     -0.15836798678581
  25    0.0030009016108129
  26    -0.016502960803313
  27     0.024552860367348
  28      0.15778894104807
  29    0.00063184713816363
  30     0.015724991793431
  31    -0.074319929653539
  32      0.25151683731856
  33     -0.27378714336609
  34     0.021571299036666
  35     -0.15772200168353
  36      0.15837078644617
 Sym= A
 Ene=               0
 Spin= Alpha
 Occup=    1.00000
   1    3.4937941345258e-07
   2    -1.0538415871035e-06
   3    -0.022436987038916
   4    0.0023299930536537
   5      0.29105918391814
   6    4.5337748620016e-06
   7    -1.9252246285673e-05
   8    -0.035142623480428
   9    0.0036605008846556
  10      0.45625583352875
  11    7.5832870065415e-06
  12    -3.1052885177662e-05
  13    -0.022640777246691
  14    0.0023527068390584
  15      0.29394072130726
  16    3.1499411009893e-08
  17    -4.0330296444918e-06
  18    4.3334534897917e-06
  19    -8.1682380263611e-06
  20    3.3069697621512e-05
  21    -0.025757259642572
  22    0.0026728974227362
  23      0.33437782586539
  24    2.8509023387385e-06
  25    -4.1939713589358e-06
  26    1.7465587236306e-05
  27    -0.022646832658198
  28    0.0023484709405595
  29      0.29393330773011
  30    -9.7238430420571e-07
  31    4.2765183483589e-06
  32    -0.025758655309296
  33    0.0026842838523155
  34      0.33436691261194
  35    2.5985572591851e-06
  36    -5.5808436638207e-06
 Sym= A
 Ene=               0
 Spin= Alpha
 Occup=    1.00000
   1    -2.3321103582696e-07
   2    1.298886385901e-06
   3    -0.042176475613909
   4    0.0043764600242127
   5      0.54712629348481
   6    3.4840003413235e-06
   7    -1.5335113831486e-05
   8    -0.033632454037081
   9    0.0035022845878171
  10      0.43663812120754
  11    -9.7923602974445e-06
  12    4.310217451054e-05
  13     0.030315696730624
  14    -0.0031450639676856
  15     -0.39359873405847
  16    -1.3994325769844e-06
  17    -4.5231494654397e-06
  18    4.3043526335741e-06
  19    4.9219821027645e-06
  20    -2.2927778623352e-05
  21      0.01246086025182
  22    -0.001293861190392
  23     -0.16181157092513
  24    1.2034646187317e-06
  25    4.9507728650119e-06
  26    -2.1729027803033e-05
  27     0.030326620711829
  28    -0.0031443006368018
  29     -0.39359151064722
  30    -1.1423053104973e-06
  31    5.4761848080596e-06
  32     0.012461565357432
  33    -0.0012962754058168
  34     -0.16180314903924
  35    1.143892158074e-07
  36    -3.7376931896191e-06
 Sym= A
 Ene=               0
 Spin= Alpha
 Occup=    1.00000
   1    3.2435072599198e-07
   2    -1.7132753805714e-06
   3    -2.8802941256852e-07
   4    6.7866512458193e-07
   5    -3.7789798132334e-07
   6    -1.0727836105795e-06
   7    5.279216118503e-06
   8    -3.5605121905724e-06
   9    -2.1751079228235e-06
  10    4.8062116677849e-07
  11    -8.6477813031667e-06
  12    3.9676577147809e-05
  13     0.030882003201289
  14    -0.0032031081279151
  15     -0.40100071277738
  16    -1.1220244172559e-06
  17    5.6843578083145e-07
  18    5.2275454818226e-07
  19    1.1506920428009e-05
  20    -5.215965575527e-05
  21     0.041338995694604
  22    -0.0042877050178385
  23     -0.53668704702586
  24    -2.5878457960452e-06
  25    -3.1868681276978e-06
  26    1.5143186189329e-05
  27    -0.030893317080051
  28    0.0032035337049827
  29      0.40101340222907
  30    -6.3976647767344e-07
  31    3.157324711624e-06
  32    -0.041344932317625
  33    0.0043092469608998
  34      0.53669475046443
  35    8.8833197983871e-06
  36    -7.694533579294e-06
 Sym= A
 Ene=               0
 Spin= Alpha
 Occup=    0.00000
   1    1.0564840175442e-06
   2    -4.6884519277492e-06
   3    -0.047994573985148
   4    0.0049863724220455
   5      0.62262485926543
   6    -4.1498050542521e-06
   7    2.0243536566117e-05
   8     0.024642754732027
   9    -0.0025729173078356
  10      -0.3200224047677
  11    6.6073962604932e-06