[Molden Format]
made by pyscf v[2.0.1]
[Atoms] (AU)
C   1   6    -5.04451050595896     2.09105754587622    -0.02271450801727
C   2   6    -2.55177277504519     1.75663271361194     0.00115273293598
H   3   1    -6.23743791661315     0.88682957299714    -1.17692143037912
H   4   1    -5.89923363209974     3.57003280000582     1.11193374895533
H   5   1    -1.35897764521972     2.96093627553601     1.15539744982032
H   6   1    -1.69687957355320     0.27769525400484    -1.13343883225288
[GTO]
1 0
 s    6 1.00
           742.7370491  0.0091635962805161
           136.1800249    0.04936149294278
           38.09826352    0.16853830490949
           13.08778177    0.37056279972087
           5.082368648    0.41649152982346
           2.093200076    0.13033408410734
 s    6 1.00
            30.4972395  -0.013252788089787
           6.036199601  -0.046991710139244
           1.876046337  -0.033785371509457
           0.721782647    0.25024178609598
          0.3134706954    0.59511725259043
           0.143686555    0.24070617629613
 p    6 1.00
            30.4972395  0.0037596966004791
           6.036199601   0.037679369804802
           1.876046337    0.17389674352216
           0.721782647    0.41803643475328
          0.3134706954    0.42585954775427
           0.143686555    0.10170829551296

2 0
 s    6 1.00
           742.7370491  0.0091635962805161
           136.1800249    0.04936149294278
           38.09826352    0.16853830490949
           13.08778177    0.37056279972087
           5.082368648    0.41649152982346
           2.093200076    0.13033408410734
 s    6 1.00
            30.4972395  -0.013252788089787
           6.036199601  -0.046991710139244
           1.876046337  -0.033785371509457
           0.721782647    0.25024178609598
          0.3134706954    0.59511725259043
           0.143686555    0.24070617629613
 p    6 1.00
            30.4972395  0.0037596966004791
           6.036199601   0.037679369804802
           1.876046337    0.17389674352216
           0.721782647    0.41803643475328
          0.3134706954    0.42585954775427
           0.143686555    0.10170829551296

3 0
 s    6 1.00
           35.52322122  0.0091635962807908
           6.513143725    0.04936149294426
           1.822142904    0.16853830491455
           0.625955266    0.37056279973198
           0.243076747    0.41649152983594
           0.100112428    0.13033408411125

4 0
 s    6 1.00
           35.52322122  0.0091635962807908
           6.513143725    0.04936149294426
           1.822142904    0.16853830491455
           0.625955266    0.37056279973198
           0.243076747    0.41649152983594
           0.100112428    0.13033408411125

5 0
 s    6 1.00
           35.52322122  0.0091635962807908
           6.513143725    0.04936149294426
           1.822142904    0.16853830491455
           0.625955266    0.37056279973198
           0.243076747    0.41649152983594
           0.100112428    0.13033408411125

6 0
 s    6 1.00
           35.52322122  0.0091635962807908
           6.513143725    0.04936149294426
           1.822142904    0.16853830491455
           0.625955266    0.37056279973198
           0.243076747    0.41649152983594
           0.100112428    0.13033408411125

[5d]
[7f]
[9g]

[MO]
 Sym= A
 Ene=               0
 Spin= Alpha
 Occup=    1.00000
   1       0.7040030599333
   2     0.012771679981013
   3    -0.0013007249783172
   4    0.00017460320794662
   5    -1.2347874761178e-05
   6      0.70372945706447
   7     0.012763776305034
   8    0.0013021000229167
   9    -0.0001745884271491
  10    1.2520877863744e-05
  11    -0.0031251450182255
  12    -0.0031252622414727
  13    -0.0031240295673213
  14    -0.0031239578212268
 Sym= A
 Ene=               0
 Spin= Alpha
 Occup=    1.00000
   1      0.70350550289471
   2      0.02028451188478
   3    0.0033945670606105
   4    -0.00045531843274082
   5    3.2606617542438e-05
   6     -0.70377919393908
   7    -0.020289478898191
   8    0.0033940154442573
   9    -0.00045545082297345
  10    3.2435297925433e-05
  11    -0.0031056331959875
  12    -0.0031057630751585
  13    0.0031069566030603
  14    0.0031068736315224
 Sym= A
 Ene=               0
 Spin= Alpha
 Occup=    1.00000
   1      -0.1705361234748
   2      0.46680253983558
   3      0.12039155640322
   4    -0.016147549626123
   5    0.0011567232415411
   6     -0.17053596222416
   7      0.46680190324854
   8     -0.12039032412493
   9      0.01615579236373
  10    -0.0011499758435079
  11      0.11372155746063
  12      0.11372759801139
  13      0.11372623837568
  14      0.11372216768491
 Sym= A
 Ene=               0
 Spin= Alpha
 Occup=    1.00000
   1       0.1318297951886
   2     -0.41725771926145
   3      0.19297116577297
   4     -0.02589217684668
   5     0.001843056396702
   6     -0.13182995384542
   7      0.41725846704578
   8      0.19297387855541
   9     -0.02588819258184
  10    0.0018463760012875
  11     -0.22766250094265
  12     -0.22766337562182
  13      0.22765947115812
  14      0.22766842801343
 Sym= A
 Ene=               0
 Spin= Alpha
 Occup=    1.00000
   1    4.4455139518393e-06
   2    -1.871781096126e-05
   3     0.037636545166412
   4      0.29857871021119
   5      0.25469689936772
   6    2.5873181343058e-06
   7    -1.1384658382321e-05
   8       0.0376026294655
   9      0.29858078467906
  10       0.2546934289854
  11     -0.25733737257906
  12      0.25732220153625
  13      0.25732380735604
  14     -0.25732918476977
 Sym= A
 Ene=               0
 Spin= Alpha
 Occup=    1.00000
   1     0.013630476478569
   2     -0.01974628722246
   3     -0.49644830100565
   4     0.066625880322034
   5    -0.0047332704461674
   6     0.013631506711768
   7    -0.019750211744422
   8      0.49645142888445
   9    -0.066594041178194
  10     0.004759852409754
  11      0.21861060525994
  12      0.21863465999419
  13      0.21861584452874
  14      0.21862699557879
 Sym= A
 Ene=               0
 Spin= Alpha
 Occup=    1.00000
   1    1.6229261515122e-06
   2    -6.4428550060985e-06
   3    -0.037568760716943
   4     -0.29801977934793
   5     -0.25422099704369
   6    -7.1322228194814e-07
   7    5.4866459295791e-06
   8     0.037553589401152
   9       0.2980262017255
  10      0.25422234180194
  11      0.34582908019793
  12     -0.34582427245844
  13      0.34584059748775
  14     -0.34581952827901
 Sym= A
 Ene=               0
 Spin= Alpha
 Occup=    1.00000
   1    6.3903588031631e-07
   2    -2.782742066109e-06
   3    -0.059089981739698
   4     -0.40587240929802
   5      0.48453134299281
   6    -7.5852662253485e-07
   7    3.3385616311971e-06
   8    -0.059089179580539
   9     -0.40587059719801
  10       0.4845324943766
  11    6.6851786760351e-07
  12    -2.1493535492988e-07
  13    2.0734908811136e-07
  14    -6.7610417181867e-07
 Sym= A
 Ene=               0
 Spin= Alpha
 Occup=    0.00000
   1    -4.5399339224125e-07
   2    2.7823003117636e-06
   3     0.075533211982835
   4      0.51882577138034
   5     -0.61937542411849
   6    -6.5984707548173e-07
   7    3.8870908897434e-06
   8    -0.075532630361191
   9     -0.51882419112483
  10      0.61937718201582
  11    -7.7924980988619e-07
  12    -1.7597249189932e-06
  13    -2.1891527824235e-06
  14    -1.2086950201901e-06
 Sym= A
 Ene=               0
 Spin= Alpha
 Occup=    0.00000
   1    6.2048737860561e-06
   2    -4.285710446554e-05
   3     0.067876703493735
   4      0.53833989285464
   5      0.45922415259953
   6    -2.0090676519523e-06
   7    6.9608426016486e-06
   8     0.067806387644046
   9      0.53835716921961
  10      0.45922537539728
  11      0.62635113183644
  12      -0.6262872514819
  13     -0.62633469856914
  14      0.62631215743617
 Sym= A
 Ene=               0
 Spin= Alpha
 Occup=    0.00000
   1     -0.11413808779791
   2      0.82163990788244
   3     -0.49865495606538
   4     0.066913872261246
   5    -0.0047559724290145
   6     -0.11410629797733
   7      0.82142635299258
   8      0.49860299259403
   9    -0.066852331326817
  10    0.0048001765582172
  11     -0.62514686384996
  12     -0.62515904342228
  13     -0.62503021541707
  14     -0.62499611544782
 Sym= A
 Ene=               0
 Spin= Alpha
 Occup=    0.00000
   1       0.1531944639062
   2      -1.0356332247009
   3      0.21942044578364
   4    -0.029435388031483
   5    0.0020993592533871
   6     -0.15321903280187
   7       1.0358111520842
   8      0.21952721242387
   9     -0.02948602168533
  10    0.0020681959817037
  11      0.64186329753684
  12      0.64186576503659
  13     -0.64195527921344
  14      -0.6420447335713
 Sym= A
 Ene=               0
 Spin= Alpha
 Occup=    0.00000
   1    6.915807545539e-05
   2    -0.00058225361384884
   3     0.090512422248198
   4      0.72510609608647
   5      0.61842947145059
   6    -7.2192104472013e-05
   7    0.00061025059036884
   8    -0.092154595741049
   9     -0.72488022621293
  10     -0.61843815835151
  11      0.61653175412962
  12     -0.61677009116774
  13      0.61674454522158
  14     -0.61654456536522
 Sym= A
 Ene=               0
 Spin= Alpha
 Occup=    0.00000
   1     -0.10348669206393
   2      0.87996674276744
   3       1.1395061375409
   4     -0.15234228032142
   5     0.011356822887057
   6      0.10348522652986
   7      -0.8799554219864
   8       1.1393796962607
   9     -0.15340106631331
  10     0.010454296457545
  11      0.10869743479604
  12      0.10778427262437
  13     -0.10778036494019
  14     -0.10872033443203
